date Tue 15 Feb 2022 16:30:04 GMT
hostname MacBook-Pro-3.local
system Darwin MacBook-Pro-3.local 21.3.0 Darwin Kernel Version 21.3.0: Wed Jan 5 21:37:58 PST 2022; root:xnu-8019.80.24~20/RELEASE_ARM64_T8101 arm64
user brunocamino
output data in /Users/brunocamino/Desktop/Imperial/cmsg_icl/ml-surface-adsorption/data/Cu_O_100_5_BSSE_ads.out
crystal executable in /Users/brunocamino/crystal
input data in /Users/brunocamino/Desktop/Imperial/cmsg_icl/ml-surface-adsorption/data/Cu_O_100_5_BSSE_ads.d12
temporary directory /Users/brunocamino/crystal/tmp
external geometry input from /Users/brunocamino/Desktop/Imperial/cmsg_icl/ml-surface-adsorption/data/Cu_O_100_5_BSSE_ads.gui
external geometry input saved in /Users/brunocamino/Desktop/Imperial/cmsg_icl/ml-surface-adsorption/data/Cu_O_100_5_BSSE_ads_inp.gui
Adsorption tests
EXTERNAL
EXTPRT
BASISSET
STO-3G
GHOSTS
2
1 2
DFT
B3LYP
XXLGRID
ENDDFT
TOLINTEG
5 5 5 5 10
SHRINK
6 12
MAXCYCLE
20
ENDSCF

         
 *******************************************************************************
 *                                                                             *
 *                               CRYSTAL17                                     *
 *                      public : 1.0.2 - March 1st, 2018                       *
 *                       HTTP://WWW.CRYSTAL.UNITO.IT                           *
 *                                                                             *
 *                              MAIN AUTHORS                                   *
 *                                                                             *
 *  R. DOVESI(1,11), V.R. SAUNDERS(2), C. ROETTI(1,11), R. ORLANDO(1,11),      *
 *  C.M. ZICOVICH-WILSON(1,3), F. PASCALE(4), B. CIVALLERI(1,11),              *
 *  K. DOLL(5), N.M. HARRISON(2,6), I.J. BUSH(7), Ph. D'ARCO(8),               *
 *  M. LLUNELL(9), M. CAUSA'(10), Y. NOEL(8), L. MASCHIO(1,11), A. ERBA(1,11)  *
 *  M. RE'RAT(14), S. CASASSA(1,11)                                            *
 *                                                                             *
 *        CONTRIBUTIONS TO THE CODE HAVE ALSO BEEN GIVEN BY                    *
 *                                                                             *
 *  M. FERRABONE(1,11), M. DE LA PIERRE(1,11), M. FERRERO(1,11),               *
 *  J. BAIMA(1,11), E. ALBANESE(1,11), M.F. PEINTINGER(12), R. BAST(13),       *
 *  B. KIRTMAN(15), V. LACIVITA(1,11), R. DEMICHELIS(1,16)                     *
 *  G. BRANDEBURG(17), S. SALUSTRO(1,11), G. SANSONE(1,11)                     *
 *  M.T. RUGGIERO(18)                                                          *
 *                                                                             *
 * (1) THEORETICAL CHEMISTRY GROUP - UNIVERSITA' DI TORINO - TORINO (ITALY)    *
 * (2) COMPUTATIONAL SCIENCE & ENGINEERING DEPARTMENT - STFC DARESBURY (UK)    *
 * (3) UNIVERSIDAD AUTONOMA DEL ESTADO DE MORELOS - CUERNAVACA (MEXICO)        *
 * (4) UNIVERSITE' DE LORRAINE - NANCY (FRANCE)                                *
 * (5) UNIVERSITAET STUTTGART- STUTTGART (GERMANY)                             *
 * (6) IMPERIAL COLLEGE - LONDON (UK)                                          *
 * (7) OXFORD E-RESEARCH CENTRE - OXFORD (UK)                                  *
 * (8) UPMC - SORBONNE UNIVERSITES - PARIS (FRANCE)                            *
 * (9) UNIVERSIDAD DE BARCELONA - BARCELONA (SPAIN)                            *
 *(10) UNIVERSITA' DI NAPOLI "FEDERICO II" - NAPOLI (ITALY)                    *
 *(11) NIS - NANOSTRUCTURED INTERFACES AND SURFACES - TORINO (ITALY)           *
 *(12) MPI FUER CHEMISCHE ENERGIEKONVERSION - MUELHEIM AN DER RUHR (GERMANY)   *
 *(13) UNIVERSITY OF TROMSO - TROMSO (NORWAY)                                  *
 *(14) UNIVERSITE' DE PAU ET DES PAYS DE L'ADOUR - PAU (FRANCE)                *
 *(15) UNIVERSITY OF CALIFORNIA SANTA BARBARA - SANTA BARBARA (USA)            *
 *(16) CURTIN UNIVERSITY - PERTH (AUSTRALIA)                                   *
 *(17) UNIVERSITY COLLEGE LONDON - LONDON (UK)                                 *
 *(18) CAMBRIDGE UNIVERSITY - CAMBRIDGE (UK)                                   *
 *                                                                             *
 *******************************************************************************
 EEEEEEEEEE STARTING  DATE 15 02 2022 TIME 16:30:04.8
 Adsorption tests                                                                

 GEOMETRY INPUT FROM EXTERNAL FILE (FORTRAN UNIT 34)
 2D - SLAB    

 *******************************************************************************
 LATTICE PARAMETERS  (ANGSTROMS AND DEGREES) - PRIMITIVE CELL
       A          B          C        ALPHA      BETA     GAMMA        VOLUME
    2.56062    3.62126  500.00000    90.00000  90.00000  90.00000      9.272672
 INFORMATION **** CHKGRP **** SPGR WITH NO INVERSION

 NUMBER OF IRREDUCIBLE ATOMS IN THE CELL:    4

 CARTESIAN COORDINATES (ANGSTROM) - IRREDUCIBLE ATOMS AND SYMMETRY RELATED

 AT.IRR.  AT  AT.N.          X                   Y                   Z
     1     1    29    1.920460000000E+00  0.000000000000E+00  1.920460000000E+00
     1     2    29    6.401589166530E-01  0.000000000000E+00  1.920460000000E+00
     3     3    29    6.401500000000E-01  1.810631000000E+00  6.401500000000E-01
     3     4    29   -6.401500000000E-01 -1.810631000000E+00  6.401500000000E-01
     5     5     8    1.920460000000E+00  1.810631000000E+00 -1.359850000000E+00
     5     6     8    6.401589166530E-01 -1.810631000000E+00 -1.359850000000E+00
     7     7     8    6.401500000000E-01  0.000000000000E+00  3.920460000000E+00
     7     8     8   -6.401500000000E-01  0.000000000000E+00  3.920460000000E+00

 SYMMETRY CHANGED DURING OLD RUN :  INFORMATION ON SPACE GROUP LOST 
 NUMBER OF SYMMETRY OPERATORS         :    4
 *******************************************************************************
 LATTICE PARAMETERS (ANGSTROMS AND DEGREES) - BOHR = 0.5291772083 ANGSTROM
 PRIMITIVE CELL
         A              B              C           ALPHA      BETA       GAMMA 
     2.56061892     3.62126200   500.00000000    90.000000  90.000000  90.000000
 *******************************************************************************
 ATOMS IN THE ASYMMETRIC UNIT    4 - ATOMS IN THE UNIT CELL:    8
     ATOM                 X/A                 Y/B             Z(ANGSTROM)
 *******************************************************************************
      1 T  29 CU   -2.500016353419E-01  0.000000000000E+00  1.920460000000E+00
      2 F  29 CU    2.500016353431E-01  0.000000000000E+00  1.920460000000E+00
      3 T  29 CU    2.499981531174E-01  5.000000000000E-01  6.401500000000E-01
      4 F  29 CU   -2.499981531174E-01 -5.000000000000E-01  6.401500000000E-01
      5 T   8 O    -2.500016353419E-01  5.000000000000E-01 -1.359850000000E+00
      6 F   8 O     2.500016353431E-01 -5.000000000000E-01 -1.359850000000E+00
      7 T   8 O     2.499981531174E-01  0.000000000000E+00  3.920460000000E+00
      8 F   8 O    -2.499981531174E-01  0.000000000000E+00  3.920460000000E+00

 T = ATOM BELONGING TO THE ASYMMETRIC UNIT
 *******************************************************************************
 * GEOMETRY EDITING - INPUT COORDINATES ARE GIVEN IN ANGSTROM         
 *******************************************************************************

 GEOMETRY NOW FULLY CONSISTENT WITH THE GROUP

 GCALCO - MAX INDICES DIRECT LATTICE VECTOR    98    69     0
 NO.OF VECTORS CREATED 6999 STARS 1080 RMAX   271.49459 BOHR

 GEOMETRY FOR WAVE FUNCTION - DIMENSIONALITY OF THE SYSTEM    2
 (NON PERIODIC DIRECTION: LATTICE PARAMETER FORMALLY SET TO 500)
 *******************************************************************************
 LATTICE PARAMETERS (ANGSTROMS AND DEGREES) - BOHR = 0.5291772083 ANGSTROM
 PRIMITIVE CELL
         A              B              C           ALPHA      BETA       GAMMA 
     2.56061892     3.62126200   500.00000000    90.000000  90.000000  90.000000
 *******************************************************************************
 ATOMS IN THE ASYMMETRIC UNIT    4 - ATOMS IN THE UNIT CELL:    8
     ATOM                 X/A                 Y/B             Z(ANGSTROM)
 *******************************************************************************
      1 T  29 CU   -2.500016353419E-01  0.000000000000E+00  1.920460000000E+00
      2 F  29 CU    2.500016353419E-01  0.000000000000E+00  1.920460000000E+00
      3 T  29 CU    2.499981531174E-01  5.000000000000E-01  6.401500000000E-01
      4 F  29 CU   -2.499981531174E-01  5.000000000000E-01  6.401500000000E-01
      5 T   8 O    -2.500016353419E-01  5.000000000000E-01 -1.359850000000E+00
      6 F   8 O     2.500016353419E-01  5.000000000000E-01 -1.359850000000E+00
      7 T   8 O     2.499981531174E-01  0.000000000000E+00  3.920460000000E+00
      8 F   8 O    -2.499981531174E-01  0.000000000000E+00  3.920460000000E+00

 T = ATOM BELONGING TO THE ASYMMETRIC UNIT

 ****    4 SYMMOPS - TRANSLATORS IN FRACTIONAL UNITS
 **** MATRICES AND TRANSLATORS IN THE CRYSTALLOGRAPHIC REFERENCE FRAME
   V INV                    ROTATION MATRICES                   TRANSLATORS
   1   1  1.00  0.00  0.00  0.00  1.00  0.00  0.00  0.00  1.00  0.00  0.00  0.00
   2   2 -1.00  0.00  0.00  0.00 -1.00  0.00  0.00  0.00  1.00  0.00  0.00  0.00
   3   3 -1.00  0.00  0.00  0.00  1.00  0.00  0.00  0.00  1.00  0.00  0.00  0.00
   4   4  1.00 -0.00  0.00  0.00 -1.00  0.00  0.00  0.00  1.00  0.00  0.00  0.00

 DIRECT LATTICE VECTORS CARTESIAN COMPONENTS (ANGSTROM)
          X                    Y                    Z
   0.256061891665E+01   0.000000000000E+00   0.000000000000E+00
  -0.221738345859E-15   0.362126200000E+01   0.000000000000E+00
   0.000000000000E+00   0.000000000000E+00   0.500000000000E+03


 CARTESIAN COORDINATES - PRIMITIVE CELL
 *******************************************************************************
 *      ATOM          X(ANGSTROM)         Y(ANGSTROM)         Z(ANGSTROM)
 *******************************************************************************
    1    29 CU    1.920460000000E+00  0.000000000000E+00  1.920460000000E+00
    2    29 CU    6.401589166500E-01  0.000000000000E+00  1.920460000000E+00
    3    29 CU    6.401500000000E-01  1.810631000000E+00  6.401500000000E-01
    4    29 CU   -6.401500000000E-01  1.810631000000E+00  6.401500000000E-01
    5     8 O     1.920460000000E+00  1.810631000000E+00 -1.359850000000E+00
    6     8 O     6.401589166500E-01  1.810631000000E+00 -1.359850000000E+00
    7     8 O     6.401500000000E-01  0.000000000000E+00  3.920460000000E+00
    8     8 O    -6.401500000000E-01  0.000000000000E+00  3.920460000000E+00

 *******************************************************************************
 STARTING BASIS SET HANDLING 
 *******************************************************************************

 Loading internal basis set: STO-3G              

 Please cite in your publication:
 H - Ne: W.J. Hehre, R.F. Stewart and J.A. Pople, J. Chem. Phys. 2657 (1969).   
                                                                                
                                                                                
                    
 Na - Ar: W.J. Hehre, R. Ditchfield, R.F. Stewart, J.A. Pople, J. Chem. Phys.  2
 769 (1970).                                                                    
                                                                                
                    
 K,Ca: W.J. Pietro, B.A. Levy, W.J. Hehre and R.F. Stewart, Inorg. Chem., 1980, 
 19 (8), pp 2225-2229                                                           
                                                                                
                    
 Ga-Kr: J. Am. Chem. Soc. 19, 2225 (1980).                                      
                                                                                
                                                                                
                    
 Sc-Zn, Y-Cd: W.J. Pietro and W.J. Hehre, J. Comp. Chem. 4, 241 (1983).         
                                                                                
                                                                                
                    

 *******************************************************************************
 LOCAL ATOMIC FUNCTIONS BASIS SET
 *******************************************************************************
   ATOM   X(AU)   Y(AU)   Z(AU)  N. TYPE  EXPONENT  S COEF   P COEF   D/F/G COEF
 *******************************************************************************
   1 CU   3.629   0.000   3.629
                                  1 S  
                                         1.802E+03 1.543E-01 0.000E+00 0.000E+00
                                         3.282E+02 5.353E-01 0.000E+00 0.000E+00
                                         8.882E+01 4.446E-01 0.000E+00 0.000E+00
                                  2 S  
                                         1.441E+02-9.997E-02 0.000E+00 0.000E+00
                                         3.349E+01 3.995E-01 0.000E+00 0.000E+00
                                         1.089E+01 7.001E-01 0.000E+00 0.000E+00
                                  3 S  
                                         1.131E+01-2.278E-01 0.000E+00 0.000E+00
                                         3.449E+00 2.175E-01 0.000E+00 0.000E+00
                                         1.331E+00 9.167E-01 0.000E+00 0.000E+00
                                  4 S  
                                         6.309E-01-3.088E-01 0.000E+00 0.000E+00
                                         2.329E-01 1.961E-02 0.000E+00 0.000E+00
                                         1.028E-01 1.131E+00 0.000E+00 0.000E+00
                           5-     7 P  
                                         1.441E+02 0.000E+00 1.559E-01 0.000E+00
                                         3.349E+01 0.000E+00 6.077E-01 0.000E+00
                                         1.089E+01 0.000E+00 3.920E-01 0.000E+00
                           8-    10 P  
                                         1.131E+01 0.000E+00 4.952E-03 0.000E+00
                                         3.449E+00 0.000E+00 5.778E-01 0.000E+00
                                         1.331E+00 0.000E+00 4.846E-01 0.000E+00
                          11-    13 P  
                                         6.309E-01 0.000E+00-1.215E-01 0.000E+00
                                         2.329E-01 0.000E+00 5.715E-01 0.000E+00
                                         1.028E-01 0.000E+00 5.499E-01 0.000E+00
                          14-    18 D  
                                         9.648E+00 0.000E+00 0.000E+00 2.198E-01
                                         2.943E+00 0.000E+00 0.000E+00 6.555E-01
                                         1.135E+00 0.000E+00 0.000E+00 2.866E-01
   2 CU   1.210   0.000   3.629
   3 CU   1.210   3.422   1.210
   4 CU  -1.210   3.422   1.210
   5 O    3.629   3.422  -2.570
                                 73 S  
                                         1.307E+02 1.543E-01 0.000E+00 0.000E+00
                                         2.381E+01 5.353E-01 0.000E+00 0.000E+00
                                         6.444E+00 4.446E-01 0.000E+00 0.000E+00
                                 74 S  
                                         5.033E+00-9.997E-02 0.000E+00 0.000E+00
                                         1.170E+00 3.995E-01 0.000E+00 0.000E+00
                                         3.804E-01 7.001E-01 0.000E+00 0.000E+00
                          75-    77 P  
                                         5.033E+00 0.000E+00 1.559E-01 0.000E+00
                                         1.170E+00 0.000E+00 6.077E-01 0.000E+00
                                         3.804E-01 0.000E+00 3.920E-01 0.000E+00
   6 O    1.210   3.422  -2.570
   7 O    1.210   0.000   7.409
   8 O   -1.210   0.000   7.409

 *******************************************************************************
 FINISHED BASIS SET HANDLING 
 *******************************************************************************

 INFORMATION **** SET_MPP **** PCRYSTAL CALCULATION
 INFORMATION **** READM2 **** NEW DEFAULT: FOCK/KS MATRIX MIXING SET TO 30 %
 INFORMATION **** READM2 **** NEW DEFAULT: FULL DIRECT SCF MODE
 INFORMATION **** READM2 **** NEW DEFAULT: COULOMB BIPOLAR BUFFER SET TO 32 Mb
 INFORMATION **** READM2 **** NEW DEFAULT: EXCHANGE BIPOLAR BUFFER SET TO 32 Mb

 *******************************************************************************
 * ATOMS TRANSFORMED INTO GHOSTS :   2
   1( 29)   2( 29)
 SYMMETRY MAY BE BROKEN

 *******************************************************************************
 NEW DEFAULT: DFT INTEGRATION GRID INCREASED TO XLGRID
 NEW DEFAULT: DIIS ACCELERATOR ACTIVE
 USE KEYWORD NODIIS TO TURN IT OFF
 *******************************************************************************

 INFORMATION **** TOLINTEG **** COULOMB AND EXCHANGE SERIES TOLERANCES MODIFIED
 INFORMATION **** MAXCYCLE **** MAX NUMBER OF SCF CYCLES SET TO          20

 GHOST ATOMS - REMOVAL OF NUCLEAR CHARGE AND ELECTRONS
 TOTAL NUCLEAR CHARGE        9.000000E+01
 TOTAL ELECTRONIC CHARGE     9.000000E+01
 *******************************************************************************
 N. OF ATOMS PER CELL         8  COULOMB OVERLAP TOL         (T1) 10**   -5
 NUMBER OF SHELLS            44  COULOMB PENETRATION TOL     (T2) 10**   -5
 NUMBER OF AO                92  EXCHANGE OVERLAP TOL        (T3) 10**   -5
 N. OF ELECTRONS PER CELL    90  EXCHANGE PSEUDO OVP (F(G))  (T4) 10**   -5
 CORE ELECTRONS PER CELL     44  EXCHANGE PSEUDO OVP (P(G))  (T5) 10**  -10
 N. OF SYMMETRY OPERATORS     4  POLE ORDER IN MONO ZONE                  4
 *******************************************************************************
 TYPE OF CALCULATION :  RESTRICTED CLOSED SHELL
 KOHN-SHAM HAMILTONIAN

 (EXCHANGE)[CORRELATION] FUNCTIONAL:(BECKE 88)[LEE-YANG-PARR]

 NON-LOCAL WEIGHTING FACTOR (EXCHANGE) =           0.9000
 NON-LOCAL WEIGHTING FACTOR [CORRELATION] =        0.8100

 HYBRID EXCHANGE - PERCENTAGE OF FOCK EXCHANGE    20.0000

 CAPPA:IS1  6;IS2  6;IS3  1; K PTS MONK NET  16; SYMMOPS:K SPACE   8;G SPACE   4

 *******************************************************************************
 MAX NUMBER OF SCF CYCLES      20  CONVERGENCE ON DELTAP        10**-16
 WEIGHT OF F(I) IN F(I+1)      30% CONVERGENCE ON ENERGY        10**- 6
 SHRINK. FACT.(MONKH.)    6  6  1  NUMBER OF K POINTS IN THE IBZ     16
 SHRINKING FACTOR(GILAT NET)   12  NUMBER OF K POINTS(GILAT NET)     49
 *******************************************************************************
 *** K POINTS COORDINATES (OBLIQUE COORDINATES IN UNITS OF IS =  6)
   1-R(  0  0  0)   2-C(  1  0  0)   3-C(  2  0  0)   4-R(  3  0  0)
   5-C(  0  1  0)   6-C(  1  1  0)   7-C(  2  1  0)   8-C(  3  1  0)
   9-C(  0  2  0)  10-C(  1  2  0)  11-C(  2  2  0)  12-C(  3  2  0)
  13-R(  0  3  0)  14-C(  1  3  0)  15-C(  2  3  0)  16-R(  3  3  0)

 DIRECT LATTICE VECTORS COMPON. (A.U.)     RECIP. LATTICE VECTORS COMPON. (A.U.) 
        X            Y            Z              X            Y            Z
    4.8388685    0.0000000    0.0000000      1.2984823    0.0000000    0.0000000
   -0.0000000    6.8431934    0.0000000      0.0000000    0.9181657    0.0000000
    0.0000000    0.0000000  944.8630670      0.0000000    0.0000000    0.0066498

 DISK SPACE FOR EIGENVECTORS (FTN 10)      236992 REALS

 SYMMETRY ADAPTION OF THE BLOCH FUNCTIONS ENABLED
 TTTTTTTTTTTTTTTTTTTTTTTTTTTTTT gordsh1     TELAPSE        0.01 TCPU        0.01

 MATRIX SIZE: P(G)   79100, F(G)   16856, P(G) IRR   12663, F(G) IRR    5983
 MAX G-VECTOR INDEX FOR 1- AND 2-ELECTRON INTEGRALS  65

 TTTTTTTTTTTTTTTTTTTTTTTTTTTTTT INPUT       TELAPSE        0.01 TCPU        0.01

 NEIGHBORS OF THE NON-EQUIVALENT ATOMS

 N = NUMBER OF NEIGHBORS AT DISTANCE R
    ATOM  N     R/ANG      R/AU   NEIGHBORS (ATOM LABELS AND CELL INDICES)
   1 XX   1     1.2803     2.4194    2 XX   0 0 0
   1 XX   1     1.2803     2.4195    2 XX   1 0 0
   1 XX   1     2.0000     3.7795    8 O    1 0 0
   1 XX   2     2.2176     4.1906    4 CU   1-1 0    4 CU   1 0 0
   1 XX   1     2.3747     4.4875    7 O    1 0 0
   1 XX   1     2.3747     4.4875    7 O    0 0 0

   3 CU   1     1.2803     2.4194    4 CU   0 0 0
   3 CU   1     1.2803     2.4195    4 CU   1 0 0
   3 CU   1     2.0000     3.7795    6 O    0 0 0
   3 CU   2     2.2176     4.1906    2 XX   0 0 0    2 XX   0 1 0
   3 CU   1     2.3747     4.4875    5 O   -1 0 0
   3 CU   1     2.3747     4.4875    5 O    0 0 0

   5 O    1     1.2803     2.4194    6 O    0 0 0
   5 O    1     1.2803     2.4195    6 O    1 0 0
   5 O    1     2.0000     3.7795    4 CU   1 0 0
   5 O    1     2.3747     4.4875    3 CU   1 0 0
   5 O    1     2.3747     4.4875    3 CU   0 0 0
   5 O    2     2.5606     4.8389    5 O   -1 0 0    5 O    1 0 0

   7 O    1     1.2803     2.4194    8 O    0 0 0
   7 O    1     1.2803     2.4195    8 O    1 0 0
   7 O    1     2.0000     3.7795    2 XX   0 0 0
   7 O    1     2.3747     4.4875    1 XX  -1 0 0
   7 O    1     2.3747     4.4875    1 XX   0 0 0
   7 O    2     2.5606     4.8389    7 O   -1 0 0    7 O    1 0 0


 SYMMETRY ALLOWED INTERNAL DEGREE(S) OF FREEDOM:   7
 TTTTTTTTTTTTTTTTTTTTTTTTTTTTTT SYMM        TELAPSE        0.02 TCPU        0.01
 TTTTTTTTTTTTTTTTTTTTTTTTTTTTTT INT_SCREEN  TELAPSE        0.02 TCPU        0.01
 INFORMATION **** EXCBUF **** EXCH. BIPO BUFFER: WORDS USED =      354618

 DFT PARAMETERS

     ATOM       ELECTRONS   NET CHARGE   R(ANGSTROM)
   1   0  XX      0.0000      0.0000     0.50000000
   3  29  CU     29.0000      0.0000     1.28000000
   5   8  O       8.0000      0.0000     0.74000000

 SIZE OF GRID=     118412
 TTTTTTTTTTTTTTTTTTTTTTTTTTTTTT MAKE_GRID2  TELAPSE        0.83 TCPU        0.83
 BECKE WEIGHT FUNCTION
 RADSAFE =     2.00
 TOLERANCES - DENSITY:10**- 6; POTENTIAL:10**- 9; GRID WGT:10**-14

 RADIAL INTEGRATION  - INTERVALS (POINTS,UPPER LIMIT):            1( 99,  4.0*R)

 ANGULAR INTEGRATION - INTERVALS (ACCURACY LEVEL [N. POINTS] UPPER LIMIT):
  1(  6[ 146]   0.2)  2( 11[ 302]   0.5)  3( 14[ 590]   0.9)  4( 18[1454]   3.5)
  5( 14[ 590]9999.0)

 GHOST ATOMS - REMOVAL OF NUCLEAR CHARGE AND ELECTRONS
 TOTAL NUCLEAR CHARGE        9.000000E+01
 TOTAL ELECTRONIC CHARGE     9.000000E+01
 TTTTTTTTTTTTTTTTTTTTTTTTTTTTTT INT_CALC    TELAPSE        0.83 TCPU        0.83
 EEEEEEEEEE INT_CALC TERMINATION  DATE 15 02 2022 TIME 16:30:05.7

 *******************************************************************************
 Adsorption tests                                                                
 CRYSTAL - SCF - TYPE OF CALCULATION :  RESTRICTED CLOSED SHELL
 *******************************************************************************

 CAPPA:IS1  6;IS2  6;IS3  1; K PTS MONK NET  16; SYMMOPS:K SPACE   8;G SPACE   4

 TTTTTTTTTTTTTTTTTTTTTTTTTTTTTT SDIK        TELAPSE        0.85 TCPU        0.85

 AAAAAAAAAAAAAAAAAAAAAAAAAAAAAAAAAAAAAAAAAAAAAAAAAAAAAAAAAAAAAAAAAAAAAAAAAAAAAAA
         ATOMIC WAVEFUNCTION(S)


 NUCLEAR CHARGE 29.0  SYMMETRY SPECIES            S    P    D
 N. ELECTRONS   29.0  NUMBER OF PRIMITIVE GTOS   12    9    3
                      NUMBER OF CONTRACTED GTOS   4    3    1
                      NUMBER OF CLOSED SHELLS     4    2    0
                      OPEN SHELL OCCUPATION       0    0    9

  ZNUC SCFIT  TOTAL HF ENERGY   KINETIC ENERGY   VIRIAL THEOREM ACCURACY
  29.0   5   -1.619844227E+03  1.626147454E+03 -1.996123828E+00  5.2E-07

 NUCLEAR CHARGE  8.0  SYMMETRY SPECIES            S    P
 N. ELECTRONS    8.0  NUMBER OF PRIMITIVE GTOS    6    3
                      NUMBER OF CONTRACTED GTOS   2    1
                      NUMBER OF CLOSED SHELLS     2    0
                      OPEN SHELL OCCUPATION       0    4

  ZNUC SCFIT  TOTAL HF ENERGY   KINETIC ENERGY   VIRIAL THEOREM ACCURACY
   8.0   1   -7.380415023E+01  7.344495887E+01 -2.004890620E+00  0.0E+00

 AAAAAAAAAAAAAAAAAAAAAAAAAAAAAAAAAAAAAAAAAAAAAAAAAAAAAAAAAAAAAAAAAAAAAAAAAAAAAAA

 CHARGE NORMALIZATION FACTOR   1.00000000
 TOTAL ATOMIC CHARGES:
   0.0000000   0.0000000  29.0000000  29.0000000   8.0000000   8.0000000
   8.0000000   8.0000000
 TTTTTTTTTTTTTTTTTTTTTTTTTTTTTT MOQGAD      TELAPSE        0.88 TCPU        0.88
 TTTTTTTTTTTTTTTTTTTTTTTTTTTTTT SHELLXN     TELAPSE       67.14 TCPU       67.10
 TTTTTTTTTTTTTTTTTTTTTTTTTTTTTT MONMO3      TELAPSE       67.31 TCPU       67.27
 NUMERICALLY INTEGRATED DENSITY     89.9999908875
 TTTTTTTTTTTTTTTTTTTTTTTTTTTTTT NUMDFT      TELAPSE       69.69 TCPU       69.65
 CYC   0 ETOT(AU) -3.541143951919E+03 DETOT -3.54E+03 tst  0.00E+00 PX  1.00E+00
 TTTTTTTTTTTTTTTTTTTTTTTTTTTTTT DIIS        TELAPSE       69.69 TCPU       69.65
 TTTTTTTTTTTTTTTTTTTTTTTTTTTTTT FDIK        TELAPSE       69.74 TCPU       69.70
 POSSIBLY CONDUCTING STATE - EFERMI(AU)  3.8448765E-01 (RES. CHARGE  4.76E-11;IT. 10)
 TTTTTTTTTTTTTTTTTTTTTTTTTTTTTT PDIG        TELAPSE       69.75 TCPU       69.71
 CHARGE NORMALIZATION FACTOR   1.00000000
 TOTAL ATOMIC CHARGES:
   2.0515911   2.0515911  24.8029856  24.8029856   9.0873627   9.0873627
   9.0580605   9.0580605
 TTTTTTTTTTTTTTTTTTTTTTTTTTTTTT MOQGAD      TELAPSE       69.77 TCPU       69.73
 TTTTTTTTTTTTTTTTTTTTTTTTTTTTTT SHELLXN     TELAPSE      137.45 TCPU      137.38
 TTTTTTTTTTTTTTTTTTTTTTTTTTTTTT MONMO3      TELAPSE      137.62 TCPU      137.55
 NUMERICALLY INTEGRATED DENSITY     89.9994245589
 TTTTTTTTTTTTTTTTTTTTTTTTTTTTTT NUMDFT      TELAPSE      143.93 TCPU      143.84
 CYC   1 ETOT(AU) -3.441084356734E+03 DETOT  1.00E+02 tst  0.00E+00 PX  1.00E+00
 TTTTTTTTTTTTTTTTTTTTTTTTTTTTTT DIIS        TELAPSE      143.93 TCPU      143.85
 DIIS TEST: 0.20774E+03 AT SCF   CYCLE   1 - MIX   30 %
 TTTTTTTTTTTTTTTTTTTTTTTTTTTTTT FDIK        TELAPSE      143.95 TCPU      143.86
 POSSIBLY CONDUCTING STATE - EFERMI(AU) -2.0786196E+00 (RES. CHARGE  1.35E-13;IT. 12)
 TTTTTTTTTTTTTTTTTTTTTTTTTTTTTT PDIG        TELAPSE      143.96 TCPU      143.88
 CHARGE NORMALIZATION FACTOR   1.00000000
 TOTAL ATOMIC CHARGES:
   0.3293775   0.3293775  35.3997418  35.3997418   7.2566034   7.2566034
   2.0142772   2.0142772
 TTTTTTTTTTTTTTTTTTTTTTTTTTTTTT MOQGAD      TELAPSE      143.99 TCPU      143.90
 TTTTTTTTTTTTTTTTTTTTTTTTTTTTTT SHELLXN     TELAPSE      211.69 TCPU      211.58
 TTTTTTTTTTTTTTTTTTTTTTTTTTTTTT MONMO3      TELAPSE      211.86 TCPU      211.75
 NUMERICALLY INTEGRATED DENSITY     89.9971513749
 TTTTTTTTTTTTTTTTTTTTTTTTTTTTTT NUMDFT      TELAPSE      218.13 TCPU      218.02
 CYC   2 ETOT(AU) -2.898801228769E+03 DETOT  5.42E+02 tst  3.48E+02 PX  3.13E+02
 TTTTTTTTTTTTTTTTTTTTTTTTTTTTTT DIIS        TELAPSE      218.14 TCPU      218.02
 DIIS TEST: 0.82417E+02 AT SCF   CYCLE   2 - DIIS ACTIVE - HISTORY:     2 CYCLES
 TTTTTTTTTTTTTTTTTTTTTTTTTTTTTT FDIK        TELAPSE      218.16 TCPU      218.04
 POSSIBLY CONDUCTING STATE - EFERMI(AU)  6.4431356E+00 (RES. CHARGE  2.06E-13;IT. 12)
 TTTTTTTTTTTTTTTTTTTTTTTTTTTTTT PDIG        TELAPSE      218.17 TCPU      218.05
 CHARGE NORMALIZATION FACTOR   1.00000000
 TOTAL ATOMIC CHARGES:
   8.3711301   8.3711301  24.6268737  24.6268737   1.9992768   1.9992768
  10.0027194  10.0027194
 TTTTTTTTTTTTTTTTTTTTTTTTTTTTTT MOQGAD      TELAPSE      218.19 TCPU      218.08
 TTTTTTTTTTTTTTTTTTTTTTTTTTTTTT SHELLXN     TELAPSE      285.97 TCPU      285.75
 TTTTTTTTTTTTTTTTTTTTTTTTTTTTTT MONMO3      TELAPSE      286.14 TCPU      285.92
 NUMERICALLY INTEGRATED DENSITY     89.9994761584
 TTTTTTTTTTTTTTTTTTTTTTTTTTTTTT NUMDFT      TELAPSE      292.41 TCPU      292.19
 CYC   3 ETOT(AU) -3.165543076980E+03 DETOT -2.67E+02 tst  1.46E+02 PX  3.13E+02
 TTTTTTTTTTTTTTTTTTTTTTTTTTTTTT DIIS        TELAPSE      292.42 TCPU      292.20
 DIIS TEST: 0.20658E+03 AT SCF   CYCLE   3 - DIIS ACTIVE - HISTORY:     3 CYCLES
 TTTTTTTTTTTTTTTTTTTTTTTTTTTTTT FDIK        TELAPSE      292.43 TCPU      292.22
 POSSIBLY CONDUCTING STATE - EFERMI(AU)  3.3399292E+00 (RES. CHARGE  6.15E-12;IT. 10)
 TTTTTTTTTTTTTTTTTTTTTTTTTTTTTT PDIG        TELAPSE      292.45 TCPU      292.23
 CHARGE NORMALIZATION FACTOR   1.00000000
 TOTAL ATOMIC CHARGES:
   2.3350096   2.3350096  22.5534269  22.5534269  10.0454127  10.0454127
  10.0661509  10.0661509
 TTTTTTTTTTTTTTTTTTTTTTTTTTTTTT MOQGAD      TELAPSE      292.47 TCPU      292.25
 TTTTTTTTTTTTTTTTTTTTTTTTTTTTTT SHELLXN     TELAPSE      359.87 TCPU      359.64
 TTTTTTTTTTTTTTTTTTTTTTTTTTTTTT MONMO3      TELAPSE      360.04 TCPU      359.81
 NUMERICALLY INTEGRATED DENSITY     90.0000083099
 TTTTTTTTTTTTTTTTTTTTTTTTTTTTTT NUMDFT      TELAPSE      366.27 TCPU      366.04
 CYC   4 ETOT(AU) -3.410179295926E+03 DETOT -2.45E+02 tst  3.48E+01 PX  2.40E+01
 TTTTTTTTTTTTTTTTTTTTTTTTTTTTTT DIIS        TELAPSE      366.27 TCPU      366.04
 DIIS TEST: 0.43888E+02 AT SCF   CYCLE   4 - DIIS ACTIVE - HISTORY:     4 CYCLES
 TTTTTTTTTTTTTTTTTTTTTTTTTTTTTT FDIK        TELAPSE      366.29 TCPU      366.06
 POSSIBLY CONDUCTING STATE - EFERMI(AU) -2.4583661E-01 (RES. CHARGE  7.82E-10;IT. 10)
 TTTTTTTTTTTTTTTTTTTTTTTTTTTTTT PDIG        TELAPSE      366.30 TCPU      366.07
 CHARGE NORMALIZATION FACTOR   1.00000000
 TOTAL ATOMIC CHARGES:
   1.2478385   1.2478385  33.5973439  33.5973439   4.4073375   4.4073375
   5.7474800   5.7474800
 TTTTTTTTTTTTTTTTTTTTTTTTTTTTTT MOQGAD      TELAPSE      366.33 TCPU      366.10
 TTTTTTTTTTTTTTTTTTTTTTTTTTTTTT SHELLXN     TELAPSE      433.81 TCPU      433.57
 TTTTTTTTTTTTTTTTTTTTTTTTTTTTTT MONMO3      TELAPSE      433.98 TCPU      433.73
 NUMERICALLY INTEGRATED DENSITY     89.9994939075
 TTTTTTTTTTTTTTTTTTTTTTTTTTTTTT NUMDFT      TELAPSE      440.22 TCPU      439.97
 CYC   5 ETOT(AU) -3.482684427325E+03 DETOT -7.25E+01 tst  1.55E+01 PX  2.55E+01
 TTTTTTTTTTTTTTTTTTTTTTTTTTTTTT DIIS        TELAPSE      440.22 TCPU      439.97
 DIIS TEST: 0.61162E+02 AT SCF   CYCLE   5 - DIIS ACTIVE - HISTORY:     5 CYCLES
 TTTTTTTTTTTTTTTTTTTTTTTTTTTTTT FDIK        TELAPSE      440.24 TCPU      439.99
 POSSIBLY CONDUCTING STATE - EFERMI(AU) -2.2622074E-01 (RES. CHARGE  1.95E-10;IT. 10)
 TTTTTTTTTTTTTTTTTTTTTTTTTTTTTT PDIG        TELAPSE      440.25 TCPU      440.00
 CHARGE NORMALIZATION FACTOR   1.00000000
 TOTAL ATOMIC CHARGES:
   0.8715269   0.8715269  32.2907633  32.2907633   9.4811277   9.4811277
   2.3565821   2.3565821
 TTTTTTTTTTTTTTTTTTTTTTTTTTTTTT MOQGAD      TELAPSE      440.27 TCPU      440.03
 TTTTTTTTTTTTTTTTTTTTTTTTTTTTTT SHELLXN     TELAPSE      508.23 TCPU      507.80
 TTTTTTTTTTTTTTTTTTTTTTTTTTTTTT MONMO3      TELAPSE      508.40 TCPU      507.97
 NUMERICALLY INTEGRATED DENSITY     89.9997537403
 TTTTTTTTTTTTTTTTTTTTTTTTTTTTTT NUMDFT      TELAPSE      514.70 TCPU      514.26
 CYC   6 ETOT(AU) -3.359689204198E+03 DETOT  1.23E+02 tst  1.66E+01 PX  5.63E+01
 TTTTTTTTTTTTTTTTTTTTTTTTTTTTTT DIIS        TELAPSE      514.70 TCPU      514.27
 DIIS TEST: 0.60873E+02 AT SCF   CYCLE   6 - DIIS ACTIVE - HISTORY:     6 CYCLES
 TTTTTTTTTTTTTTTTTTTTTTTTTTTTTT FDIK        TELAPSE      514.72 TCPU      514.28
 POSSIBLY CONDUCTING STATE - EFERMI(AU) -6.4067832E-02 (RES. CHARGE  1.46E-11;IT. 10)
 TTTTTTTTTTTTTTTTTTTTTTTTTTTTTT PDIG        TELAPSE      514.73 TCPU      514.30
 CHARGE NORMALIZATION FACTOR   1.00000000
 TOTAL ATOMIC CHARGES:
   0.9455873   0.9455873  30.7720697  30.7720697   4.3293343   4.3293343
   8.9530086   8.9530086
 TTTTTTTTTTTTTTTTTTTTTTTTTTTTTT MOQGAD      TELAPSE      514.76 TCPU      514.32
 TTTTTTTTTTTTTTTTTTTTTTTTTTTTTT SHELLXN     TELAPSE      584.92 TCPU      583.18
 TTTTTTTTTTTTTTTTTTTTTTTTTTTTTT MONMO3      TELAPSE      585.09 TCPU      583.35
 NUMERICALLY INTEGRATED DENSITY     89.9990010551
 TTTTTTTTTTTTTTTTTTTTTTTTTTTTTT NUMDFT      TELAPSE      591.67 TCPU      589.75
 CYC   7 ETOT(AU) -3.384040407736E+03 DETOT -2.44E+01 tst  6.88E+01 PX  1.20E+02
 TTTTTTTTTTTTTTTTTTTTTTTTTTTTTT DIIS        TELAPSE      591.67 TCPU      589.75
 DIIS TEST: 0.86058E+02 AT SCF   CYCLE   7 - DIIS ACTIVE - HISTORY:     7 CYCLES
 TTTTTTTTTTTTTTTTTTTTTTTTTTTTTT FDIK        TELAPSE      591.69 TCPU      589.77
 POSSIBLY CONDUCTING STATE - EFERMI(AU)  1.1978312E-01 (RES. CHARGE  5.19E-10;IT.  8)
 TTTTTTTTTTTTTTTTTTTTTTTTTTTTTT PDIG        TELAPSE      591.71 TCPU      589.79
 CHARGE NORMALIZATION FACTOR   1.00000000
 TOTAL ATOMIC CHARGES:
   0.9794442   0.9794442  29.8871662  29.8871662   9.2995826   9.2995826
   4.8338070   4.8338070
 TTTTTTTTTTTTTTTTTTTTTTTTTTTTTT MOQGAD      TELAPSE      591.73 TCPU      589.81
 TTTTTTTTTTTTTTTTTTTTTTTTTTTTTT SHELLXN     TELAPSE      660.26 TCPU      658.04
 TTTTTTTTTTTTTTTTTTTTTTTTTTTTTT MONMO3      TELAPSE      660.43 TCPU      658.21
 NUMERICALLY INTEGRATED DENSITY     89.9997819153
 TTTTTTTTTTTTTTTTTTTTTTTTTTTTTT NUMDFT      TELAPSE      666.80 TCPU      664.55
 CYC   8 ETOT(AU) -3.397305254070E+03 DETOT -1.33E+01 tst  4.11E+01 PX  1.26E+02
 TTTTTTTTTTTTTTTTTTTTTTTTTTTTTT DIIS        TELAPSE      666.81 TCPU      664.55
 DIIS TEST: 0.70318E+02 AT SCF   CYCLE   8 - DIIS ACTIVE - HISTORY:     8 CYCLES
 TTTTTTTTTTTTTTTTTTTTTTTTTTTTTT FDIK        TELAPSE      666.82 TCPU      664.57
 POSSIBLY CONDUCTING STATE - EFERMI(AU)  7.5761913E-01 (RES. CHARGE  8.31E-13;IT. 10)
 TTTTTTTTTTTTTTTTTTTTTTTTTTTTTT PDIG        TELAPSE      666.84 TCPU      664.58
 CHARGE NORMALIZATION FACTOR   1.00000000
 TOTAL ATOMIC CHARGES:
   1.3035302   1.3035302  24.5816785  24.5816785   9.0383384   9.0383384
  10.0764529  10.0764529
 TTTTTTTTTTTTTTTTTTTTTTTTTTTTTT MOQGAD      TELAPSE      666.86 TCPU      664.61
 TTTTTTTTTTTTTTTTTTTTTTTTTTTTTT SHELLXN     TELAPSE      735.04 TCPU      732.56
 TTTTTTTTTTTTTTTTTTTTTTTTTTTTTT MONMO3      TELAPSE      735.21 TCPU      732.73
 NUMERICALLY INTEGRATED DENSITY     89.9998861422
 TTTTTTTTTTTTTTTTTTTTTTTTTTTTTT NUMDFT      TELAPSE      741.60 TCPU      739.12
 CYC   9 ETOT(AU) -3.265410571962E+03 DETOT  1.32E+02 tst  7.98E+01 PX  1.31E+02
 TTTTTTTTTTTTTTTTTTTTTTTTTTTTTT DIIS        TELAPSE      741.61 TCPU      739.12
 DIIS TEST: 0.27284E+02 AT SCF   CYCLE   9 - DIIS ACTIVE - HISTORY:     9 CYCLES
 TTTTTTTTTTTTTTTTTTTTTTTTTTTTTT FDIK        TELAPSE      741.63 TCPU      739.14
 POSSIBLY CONDUCTING STATE - EFERMI(AU) -2.3035351E-01 (RES. CHARGE  1.05E-12;IT. 10)
 TTTTTTTTTTTTTTTTTTTTTTTTTTTTTT PDIG        TELAPSE      741.64 TCPU      739.15
 CHARGE NORMALIZATION FACTOR   1.00000000
 TOTAL ATOMIC CHARGES:
   1.0147956   1.0147956  31.8331668  31.8331668   9.0707054   9.0707054
   3.0813322   3.0813322
 TTTTTTTTTTTTTTTTTTTTTTTTTTTTTT MOQGAD      TELAPSE      741.66 TCPU      739.18
 TTTTTTTTTTTTTTTTTTTTTTTTTTTTTT SHELLXN     TELAPSE      810.58 TCPU      807.80
 TTTTTTTTTTTTTTTTTTTTTTTTTTTTTT MONMO3      TELAPSE      810.75 TCPU      807.97
 NUMERICALLY INTEGRATED DENSITY     89.9985191364
 TTTTTTTTTTTTTTTTTTTTTTTTTTTTTT NUMDFT      TELAPSE      817.09 TCPU      814.31
 CYC  10 ETOT(AU) -3.286633619440E+03 DETOT -2.12E+01 tst  2.35E+01 PX  1.34E+02
 TTTTTTTTTTTTTTTTTTTTTTTTTTTTTT DIIS        TELAPSE      817.10 TCPU      814.32
 DIIS TEST: 0.82250E+02 AT SCF   CYCLE  10 - DIIS ACTIVE - HISTORY:    10 CYCLES
 TTTTTTTTTTTTTTTTTTTTTTTTTTTTTT FDIK        TELAPSE      817.12 TCPU      814.33
 POSSIBLY CONDUCTING STATE - EFERMI(AU) -4.2977554E-01 (RES. CHARGE  3.34E-13;IT. 12)
 TTTTTTTTTTTTTTTTTTTTTTTTTTTTTT PDIG        TELAPSE      817.13 TCPU      814.35
 CHARGE NORMALIZATION FACTOR   1.00000000
 TOTAL ATOMIC CHARGES:
   0.9011032   0.9011032  32.3280020  32.3280020   9.6366353   9.6366353
   2.1342595   2.1342595
 TTTTTTTTTTTTTTTTTTTTTTTTTTTTTT MOQGAD      TELAPSE      817.16 TCPU      814.37
 TTTTTTTTTTTTTTTTTTTTTTTTTTTTTT SHELLXN     TELAPSE      885.64 TCPU      882.78
 TTTTTTTTTTTTTTTTTTTTTTTTTTTTTT MONMO3      TELAPSE      885.81 TCPU      882.95
 NUMERICALLY INTEGRATED DENSITY     89.9980986359
 TTTTTTTTTTTTTTTTTTTTTTTTTTTTTT NUMDFT      TELAPSE      892.15 TCPU      889.28
 CYC  11 ETOT(AU) -3.358294375866E+03 DETOT -7.17E+01 tst  2.46E+00 PX  2.32E+01
 TTTTTTTTTTTTTTTTTTTTTTTTTTTTTT DIIS        TELAPSE      892.16 TCPU      889.29
 DIIS TEST: 0.11569E+03 AT SCF   CYCLE  11 - DIIS ACTIVE - HISTORY:    11 CYCLES
 TTTTTTTTTTTTTTTTTTTTTTTTTTTTTT FDIK        TELAPSE      892.17 TCPU      889.31
 POSSIBLY CONDUCTING STATE - EFERMI(AU) -4.9824067E-01 (RES. CHARGE  0.00E+00;IT. 10)
 TTTTTTTTTTTTTTTTTTTTTTTTTTTTTT PDIG        TELAPSE      892.19 TCPU      889.32
 CHARGE NORMALIZATION FACTOR   1.00000000
 TOTAL ATOMIC CHARGES:
   0.8344467   0.8344467  32.3984490  32.3984490   9.6941310   9.6941310
   2.0729733   2.0729733
 TTTTTTTTTTTTTTTTTTTTTTTTTTTTTT MOQGAD      TELAPSE      892.21 TCPU      889.34
 TTTTTTTTTTTTTTTTTTTTTTTTTTTTTT SHELLXN     TELAPSE      960.35 TCPU      957.45
 TTTTTTTTTTTTTTTTTTTTTTTTTTTTTT MONMO3      TELAPSE      960.53 TCPU      957.62
 NUMERICALLY INTEGRATED DENSITY     89.9983378154
 TTTTTTTTTTTTTTTTTTTTTTTTTTTTTT NUMDFT      TELAPSE      966.83 TCPU      963.92
 CYC  12 ETOT(AU) -3.414465779849E+03 DETOT -5.62E+01 tst  7.97E+00 PX  5.51E+01
 TTTTTTTTTTTTTTTTTTTTTTTTTTTTTT DIIS        TELAPSE      966.83 TCPU      963.92
 DIIS TEST: 0.87472E+02 AT SCF   CYCLE  12 - DIIS ACTIVE - HISTORY:    12 CYCLES
 TTTTTTTTTTTTTTTTTTTTTTTTTTTTTT FDIK        TELAPSE      966.85 TCPU      963.94
 POSSIBLY CONDUCTING STATE - EFERMI(AU) -4.4246902E-01 (RES. CHARGE  5.61E-13;IT.  8)
 TTTTTTTTTTTTTTTTTTTTTTTTTTTTTT PDIG        TELAPSE      966.86 TCPU      963.95
 CHARGE NORMALIZATION FACTOR   1.00000000
 TOTAL ATOMIC CHARGES:
   0.9383461   0.9383461  32.2733739  32.2733739   9.6693459   9.6693459
   2.1189340   2.1189340
 TTTTTTTTTTTTTTTTTTTTTTTTTTTTTT MOQGAD      TELAPSE      966.89 TCPU      963.98
 TTTTTTTTTTTTTTTTTTTTTTTTTTTTTT SHELLXN     TELAPSE     1035.11 TCPU     1032.13
 TTTTTTTTTTTTTTTTTTTTTTTTTTTTTT MONMO3      TELAPSE     1035.28 TCPU     1032.30
 NUMERICALLY INTEGRATED DENSITY     89.9983089217
 TTTTTTTTTTTTTTTTTTTTTTTTTTTTTT NUMDFT      TELAPSE     1041.68 TCPU     1038.68
 CYC  13 ETOT(AU) -3.405848795399E+03 DETOT  8.62E+00 tst  2.76E+00 PX  6.28E+01
 TTTTTTTTTTTTTTTTTTTTTTTTTTTTTT DIIS        TELAPSE     1041.69 TCPU     1038.69
 DIIS TEST: 0.86547E+02 AT SCF   CYCLE  13 - DIIS ACTIVE - HISTORY:    13 CYCLES
 TTTTTTTTTTTTTTTTTTTTTTTTTTTTTT FDIK        TELAPSE     1041.71 TCPU     1038.71
 POSSIBLY CONDUCTING STATE - EFERMI(AU) -3.0098032E-01 (RES. CHARGE  2.10E-10;IT.  8)
 TTTTTTTTTTTTTTTTTTTTTTTTTTTTTT PDIG        TELAPSE     1041.72 TCPU     1038.72
 CHARGE NORMALIZATION FACTOR   1.00000000
 TOTAL ATOMIC CHARGES:
   1.0477508   1.0477508  32.2399086  32.2399086   9.3419700   9.3419700
   2.3703705   2.3703705
 TTTTTTTTTTTTTTTTTTTTTTTTTTTTTT MOQGAD      TELAPSE     1041.75 TCPU     1038.75
 TTTTTTTTTTTTTTTTTTTTTTTTTTTTTT SHELLXN     TELAPSE     1110.33 TCPU     1107.14
 TTTTTTTTTTTTTTTTTTTTTTTTTTTTTT MONMO3      TELAPSE     1110.50 TCPU     1107.31
 NUMERICALLY INTEGRATED DENSITY     89.9980463753
 TTTTTTTTTTTTTTTTTTTTTTTTTTTTTT NUMDFT      TELAPSE     1116.84 TCPU     1113.65
 CYC  14 ETOT(AU) -3.345212054926E+03 DETOT  6.06E+01 tst  1.39E+00 PX  6.57E+01
 TTTTTTTTTTTTTTTTTTTTTTTTTTTTTT DIIS        TELAPSE     1116.85 TCPU     1113.66
 DIIS TEST: 0.17186E+03 AT SCF   CYCLE  14 - DIIS ACTIVE - HISTORY:    14 CYCLES
 TTTTTTTTTTTTTTTTTTTTTTTTTTTTTT FDIK        TELAPSE     1116.87 TCPU     1113.68
 POSSIBLY CONDUCTING STATE - EFERMI(AU)  3.7901627E-01 (RES. CHARGE  8.35E-12;IT. 10)
 TTTTTTTTTTTTTTTTTTTTTTTTTTTTTT PDIG        TELAPSE     1116.88 TCPU     1113.69
 CHARGE NORMALIZATION FACTOR   1.00000000
 TOTAL ATOMIC CHARGES:
   1.3071816   1.3071816  29.2248268  29.2248268   4.4049062   4.4049062
  10.0630854  10.0630854
 TTTTTTTTTTTTTTTTTTTTTTTTTTTTTT MOQGAD      TELAPSE     1116.90 TCPU     1113.71
 TTTTTTTTTTTTTTTTTTTTTTTTTTTTTT SHELLXN     TELAPSE     1185.15 TCPU     1181.88
 TTTTTTTTTTTTTTTTTTTTTTTTTTTTTT MONMO3      TELAPSE     1185.32 TCPU     1182.05
 NUMERICALLY INTEGRATED DENSITY     89.9981835388
 TTTTTTTTTTTTTTTTTTTTTTTTTTTTTT NUMDFT      TELAPSE     1191.65 TCPU     1188.38
 CYC  15 ETOT(AU) -3.399144891403E+03 DETOT -5.39E+01 tst  2.04E+01 PX  1.42E+01
 TTTTTTTTTTTTTTTTTTTTTTTTTTTTTT DIIS        TELAPSE     1191.66 TCPU     1188.38
 DIIS TEST: 0.22370E+03 AT SCF   CYCLE  15 - DIIS ACTIVE - HISTORY:    15 CYCLES
 TTTTTTTTTTTTTTTTTTTTTTTTTTTTTT FDIK        TELAPSE     1191.67 TCPU     1188.40
 POSSIBLY CONDUCTING STATE - EFERMI(AU)  9.7672367E-01 (RES. CHARGE  2.85E-11;IT. 10)
 TTTTTTTTTTTTTTTTTTTTTTTTTTTTTT PDIG        TELAPSE     1191.69 TCPU     1188.41
 CHARGE NORMALIZATION FACTOR   1.00000000
 TOTAL ATOMIC CHARGES:
   2.4295321   2.4295321  27.1737771  27.1737771   5.3617752   5.3617752
  10.0349155  10.0349155
 TTTTTTTTTTTTTTTTTTTTTTTTTTTTTT MOQGAD      TELAPSE     1191.71 TCPU     1188.44
 TTTTTTTTTTTTTTTTTTTTTTTTTTTTTT SHELLXN     TELAPSE     1259.87 TCPU     1256.55
 TTTTTTTTTTTTTTTTTTTTTTTTTTTTTT MONMO3      TELAPSE     1260.04 TCPU     1256.72
 NUMERICALLY INTEGRATED DENSITY     89.9983741249
 TTTTTTTTTTTTTTTTTTTTTTTTTTTTTT NUMDFT      TELAPSE     1266.42 TCPU     1263.07
 CYC  16 ETOT(AU) -3.312562878723E+03 DETOT  8.66E+01 tst  1.67E+01 PX  3.54E+01
 TTTTTTTTTTTTTTTTTTTTTTTTTTTTTT DIIS        TELAPSE     1266.42 TCPU     1263.07
 DIIS TEST: 0.23480E+03 AT SCF   CYCLE  16 - DIIS ACTIVE - HISTORY:    16 CYCLES
 TTTTTTTTTTTTTTTTTTTTTTTTTTTTTT FDIK        TELAPSE     1266.44 TCPU     1263.09
 POSSIBLY CONDUCTING STATE - EFERMI(AU)  1.4194308E+00 (RES. CHARGE  1.42E-14;IT. 10)
 TTTTTTTTTTTTTTTTTTTTTTTTTTTTTT PDIG        TELAPSE     1266.45 TCPU     1263.10
 CHARGE NORMALIZATION FACTOR   1.00000000
 TOTAL ATOMIC CHARGES:
   4.1123834   4.1123834  24.8298860  24.8298860   6.0398570   6.0398570
  10.0178736  10.0178736
 TTTTTTTTTTTTTTTTTTTTTTTTTTTTTT MOQGAD      TELAPSE     1266.48 TCPU     1263.13
 TTTTTTTTTTTTTTTTTTTTTTTTTTTTTT SHELLXN     TELAPSE     1334.42 TCPU     1331.01
 TTTTTTTTTTTTTTTTTTTTTTTTTTTTTT MONMO3      TELAPSE     1334.59 TCPU     1331.17
 NUMERICALLY INTEGRATED DENSITY     89.9981340052
 TTTTTTTTTTTTTTTTTTTTTTTTTTTTTT NUMDFT      TELAPSE     1340.87 TCPU     1337.45
 CYC  17 ETOT(AU) -3.455788544347E+03 DETOT -1.43E+02 tst  3.87E+01 PX  7.12E+01
 TTTTTTTTTTTTTTTTTTTTTTTTTTTTTT DIIS        TELAPSE     1340.88 TCPU     1337.46
 DIIS TEST: 0.35670E+03 AT SCF   CYCLE  17 - DIIS ACTIVE - HISTORY:    17 CYCLES
 TTTTTTTTTTTTTTTTTTTTTTTTTTTTTT FDIK        TELAPSE     1340.89 TCPU     1337.48
 POSSIBLY CONDUCTING STATE - EFERMI(AU)  1.5229779E+00 (RES. CHARGE  6.35E-11;IT. 12)
 TTTTTTTTTTTTTTTTTTTTTTTTTTTTTT PDIG        TELAPSE     1340.91 TCPU     1337.49
 CHARGE NORMALIZATION FACTOR   1.00000000
 TOTAL ATOMIC CHARGES:
   4.0960036   4.0960036  23.5600750  23.5600750   7.3239564   7.3239564
  10.0199651  10.0199651
 TTTTTTTTTTTTTTTTTTTTTTTTTTTTTT MOQGAD      TELAPSE     1340.93 TCPU     1337.51
 TTTTTTTTTTTTTTTTTTTTTTTTTTTTTT SHELLXN     TELAPSE     1408.63 TCPU     1405.20
 TTTTTTTTTTTTTTTTTTTTTTTTTTTTTT MONMO3      TELAPSE     1408.80 TCPU     1405.36
 NUMERICALLY INTEGRATED DENSITY     89.9981383149
 TTTTTTTTTTTTTTTTTTTTTTTTTTTTTT NUMDFT      TELAPSE     1415.09 TCPU     1411.65
 CYC  18 ETOT(AU) -3.463717607800E+03 DETOT -7.93E+00 tst  1.12E-01 PX  2.86E+00
 TTTTTTTTTTTTTTTTTTTTTTTTTTTTTT DIIS        TELAPSE     1415.10 TCPU     1411.66
 DIIS TEST: 0.30816E+03 AT SCF   CYCLE  18 - DIIS ACTIVE - HISTORY:    18 CYCLES
 TTTTTTTTTTTTTTTTTTTTTTTTTTTTTT FDIK        TELAPSE     1415.11 TCPU     1411.68
 POSSIBLY CONDUCTING STATE - EFERMI(AU)  1.4191302E+00 (RES. CHARGE  8.46E-12;IT. 12)
 TTTTTTTTTTTTTTTTTTTTTTTTTTTTTT PDIG        TELAPSE     1415.12 TCPU     1411.69
 CHARGE NORMALIZATION FACTOR   1.00000000
 TOTAL ATOMIC CHARGES:
   4.2198853   4.2198853  25.0885150  25.0885150   5.6736169   5.6736169
  10.0179828  10.0179828
 TTTTTTTTTTTTTTTTTTTTTTTTTTTTTT MOQGAD      TELAPSE     1415.15 TCPU     1411.71
 TTTTTTTTTTTTTTTTTTTTTTTTTTTTTT SHELLXN     TELAPSE     1482.82 TCPU     1479.33
 TTTTTTTTTTTTTTTTTTTTTTTTTTTTTT MONMO3      TELAPSE     1482.99 TCPU     1479.50
 NUMERICALLY INTEGRATED DENSITY     89.9988258722
 TTTTTTTTTTTTTTTTTTTTTTTTTTTTTT NUMDFT      TELAPSE     1489.28 TCPU     1485.79
 CYC  19 ETOT(AU) -3.382418999809E+03 DETOT  8.13E+01 tst  5.42E+00 PX  3.73E+01
 TTTTTTTTTTTTTTTTTTTTTTTTTTTTTT DIIS        TELAPSE     1489.29 TCPU     1485.80
 DIIS TEST: 0.21129E+03 AT SCF   CYCLE  19 - DIIS ACTIVE - HISTORY:    19 CYCLES
 TTTTTTTTTTTTTTTTTTTTTTTTTTTTTT FDIK        TELAPSE     1489.31 TCPU     1485.82
 POSSIBLY CONDUCTING STATE - EFERMI(AU)  1.4589181E+00 (RES. CHARGE  4.05E-13;IT. 14)
 TTTTTTTTTTTTTTTTTTTTTTTTTTTTTT PDIG        TELAPSE     1489.32 TCPU     1485.83
 CHARGE NORMALIZATION FACTOR   1.00000000
 TOTAL ATOMIC CHARGES:
   4.2045724   4.2045724  24.4168053  24.4168053   6.3610780   6.3610780
  10.0175444  10.0175444
 TTTTTTTTTTTTTTTTTTTTTTTTTTTTTT MOQGAD      TELAPSE     1489.34 TCPU     1485.85
 TTTTTTTTTTTTTTTTTTTTTTTTTTTTTT SHELLXN     TELAPSE     1557.44 TCPU     1553.70

 ::: DIPOLE MOMENT ALONG NON PERIODIC DIRECTIONS:
 ::: A.U.     (Z)  6.29418E+01
 ::: DEBYE        -1.59982E+02

 +++ ENERGIES IN A.U. +++
 ::: EXT EL-POLE                                  -5.9719706980778E+03
 ::: EXT EL-SPHEROPOLE                             0.0000000000000E+00
 ::: BIELET ZONE E-E                               4.0938124386403E+03
 ::: TOTAL E-E                                    -1.8781582594375E+03
 ::: TOTAL E-N + N-E                              -1.8861358288759E+03
 ::: TOTAL N-N                                    -2.9631107537946E+03
 ::: KINETIC ENERGY                                3.4650255553482E+03
 ::: PSEUDO TOTAL   ENERGY                        -3.2623792867598E+03
 ::: VIRIAL COEFFICIENT                            1.0301225024128E+00
 TTTTTTTTTTTTTTTTTTTTTTTTTTTTTT MONMO3      TELAPSE     1557.62 TCPU     1553.87
 NUMERICALLY INTEGRATED DENSITY     89.9990239748
 TTTTTTTTTTTTTTTTTTTTTTTTTTTTTT NUMDFT      TELAPSE     1563.89 TCPU     1560.15
 CYC  20 ETOT(AU) -3.391425474129E+03 DETOT -9.01E+00 tst  2.35E+00 PX  3.73E+01

 == SCF ENDED - TOO MANY CYCLES            E(AU) -3.3914254741294E+03 CYCLES  20


 ENERGY EXPRESSION=HARTREE+FOCK EXCH*0.20000+(BECKE      EXCH)*0.80000+LYP        CORR


 TOTAL ENERGY(DFT)(AU)( 20) -3.3914254741294E+03 DE-9.0E+00 tester 2.4E+00
 TTTTTTTTTTTTTTTTTTTTTTTTTTTTTT EDFT        TELAPSE     1563.89 TCPU     1560.15
 EIGENVECTORS IN FORTRAN UNIT  8
 TTTTTTTTTTTTTTTTTTTTTTTTTTTTTT END         TELAPSE     1563.92 TCPU     1560.17
 EEEEEEEEEE TERMINATION  DATE 15 02 2022 TIME 16:56:08.7
Tue 15 Feb 2022 16:56:08 GMT
Contents of temporary directory:
total 14792
-rw-r--r--  1 brunocamino  admin   957440 15 Feb 16:54 diis_Fg
-rw-r--r--  1 brunocamino  admin   374976 15 Feb 16:53 diis_Fia1
-rw-r--r--  1 brunocamino  admin   395808 15 Feb 16:54 diis_Fia2
-rw-r--r--  1 brunocamino  admin        0 15 Feb 16:30 diis_Sk
-rw-r--r--  1 brunocamino  admin  1190112 15 Feb 16:53 fort.10
-rw-r--r--  1 brunocamino  admin    47872 15 Feb 16:54 fort.11
-rw-r--r--  1 brunocamino  admin     1723 15 Feb 16:30 fort.34
-rw-r--r--  1 brunocamino  admin    66880 15 Feb 16:30 fort.61
-rw-r--r--  1 brunocamino  admin    42752 15 Feb 16:30 fort.62
-rw-r--r--  1 brunocamino  admin  1190112 15 Feb 16:54 fort.8
-rw-r--r--  1 brunocamino  admin   302348 15 Feb 16:56 fort.9
-rw-r--r--  1 brunocamino  admin   111728 15 Feb 16:53 fort.95
-rw-r--r--  1 brunocamino  admin   782991 15 Feb 16:56 fort.98
wave function binary file /Users/brunocamino/Desktop/Imperial/cmsg_icl/ml-surface-adsorption/data/Cu_O_100_5_BSSE_ads.f9
file fort.98 saved as /Users/brunocamino/Desktop/Imperial/cmsg_icl/ml-surface-adsorption/data/Cu_O_100_5_BSSE_ads.f98
geometry input file fort.34 saved as /Users/brunocamino/Desktop/Imperial/cmsg_icl/ml-surface-adsorption/data/Cu_O_100_5_BSSE_ads.gui
temporary directory /Users/brunocamino/crystal/tmp removed
