date Tue 15 Feb 2022 16:04:10 GMT
hostname MacBook-Pro-3.local
system Darwin MacBook-Pro-3.local 21.3.0 Darwin Kernel Version 21.3.0: Wed Jan 5 21:37:58 PST 2022; root:xnu-8019.80.24~20/RELEASE_ARM64_T8101 arm64
user brunocamino
output data in /Users/brunocamino/Desktop/Imperial/cmsg_icl/ml-surface-adsorption/data/Cu_O_100_5_BSSE_sub.out
crystal executable in /Users/brunocamino/crystal
input data in /Users/brunocamino/Desktop/Imperial/cmsg_icl/ml-surface-adsorption/data/Cu_O_100_5_BSSE_sub.d12
temporary directory /Users/brunocamino/crystal/tmp
external geometry input from /Users/brunocamino/Desktop/Imperial/cmsg_icl/ml-surface-adsorption/data/Cu_O_100_5_BSSE_sub.gui
external geometry input saved in /Users/brunocamino/Desktop/Imperial/cmsg_icl/ml-surface-adsorption/data/Cu_O_100_5_BSSE_sub_inp.gui
Adsorption tests
EXTERNAL
EXTPRT
BASISSET
STO-3G
GHOSTS
2
3 4
DFT
B3LYP
XXLGRID
ENDDFT
TOLINTEG
5 5 5 5 10
SHRINK
6 12
MAXCYCLE
20
ENDSCF

         
 *******************************************************************************
 *                                                                             *
 *                               CRYSTAL17                                     *
 *                      public : 1.0.2 - March 1st, 2018                       *
 *                       HTTP://WWW.CRYSTAL.UNITO.IT                           *
 *                                                                             *
 *                              MAIN AUTHORS                                   *
 *                                                                             *
 *  R. DOVESI(1,11), V.R. SAUNDERS(2), C. ROETTI(1,11), R. ORLANDO(1,11),      *
 *  C.M. ZICOVICH-WILSON(1,3), F. PASCALE(4), B. CIVALLERI(1,11),              *
 *  K. DOLL(5), N.M. HARRISON(2,6), I.J. BUSH(7), Ph. D'ARCO(8),               *
 *  M. LLUNELL(9), M. CAUSA'(10), Y. NOEL(8), L. MASCHIO(1,11), A. ERBA(1,11)  *
 *  M. RE'RAT(14), S. CASASSA(1,11)                                            *
 *                                                                             *
 *        CONTRIBUTIONS TO THE CODE HAVE ALSO BEEN GIVEN BY                    *
 *                                                                             *
 *  M. FERRABONE(1,11), M. DE LA PIERRE(1,11), M. FERRERO(1,11),               *
 *  J. BAIMA(1,11), E. ALBANESE(1,11), M.F. PEINTINGER(12), R. BAST(13),       *
 *  B. KIRTMAN(15), V. LACIVITA(1,11), R. DEMICHELIS(1,16)                     *
 *  G. BRANDEBURG(17), S. SALUSTRO(1,11), G. SANSONE(1,11)                     *
 *  M.T. RUGGIERO(18)                                                          *
 *                                                                             *
 * (1) THEORETICAL CHEMISTRY GROUP - UNIVERSITA' DI TORINO - TORINO (ITALY)    *
 * (2) COMPUTATIONAL SCIENCE & ENGINEERING DEPARTMENT - STFC DARESBURY (UK)    *
 * (3) UNIVERSIDAD AUTONOMA DEL ESTADO DE MORELOS - CUERNAVACA (MEXICO)        *
 * (4) UNIVERSITE' DE LORRAINE - NANCY (FRANCE)                                *
 * (5) UNIVERSITAET STUTTGART- STUTTGART (GERMANY)                             *
 * (6) IMPERIAL COLLEGE - LONDON (UK)                                          *
 * (7) OXFORD E-RESEARCH CENTRE - OXFORD (UK)                                  *
 * (8) UPMC - SORBONNE UNIVERSITES - PARIS (FRANCE)                            *
 * (9) UNIVERSIDAD DE BARCELONA - BARCELONA (SPAIN)                            *
 *(10) UNIVERSITA' DI NAPOLI "FEDERICO II" - NAPOLI (ITALY)                    *
 *(11) NIS - NANOSTRUCTURED INTERFACES AND SURFACES - TORINO (ITALY)           *
 *(12) MPI FUER CHEMISCHE ENERGIEKONVERSION - MUELHEIM AN DER RUHR (GERMANY)   *
 *(13) UNIVERSITY OF TROMSO - TROMSO (NORWAY)                                  *
 *(14) UNIVERSITE' DE PAU ET DES PAYS DE L'ADOUR - PAU (FRANCE)                *
 *(15) UNIVERSITY OF CALIFORNIA SANTA BARBARA - SANTA BARBARA (USA)            *
 *(16) CURTIN UNIVERSITY - PERTH (AUSTRALIA)                                   *
 *(17) UNIVERSITY COLLEGE LONDON - LONDON (UK)                                 *
 *(18) CAMBRIDGE UNIVERSITY - CAMBRIDGE (UK)                                   *
 *                                                                             *
 *******************************************************************************
 EEEEEEEEEE STARTING  DATE 15 02 2022 TIME 16:04:10.6
 Adsorption tests                                                                

 GEOMETRY INPUT FROM EXTERNAL FILE (FORTRAN UNIT 34)
 2D - SLAB    

 *******************************************************************************
 LATTICE PARAMETERS  (ANGSTROMS AND DEGREES) - PRIMITIVE CELL
       A          B          C        ALPHA      BETA     GAMMA        VOLUME
    2.56062    3.62126  500.00000    90.00000  90.00000  90.00000      9.272672
 INFORMATION **** CHKGRP **** SPGR WITH NO INVERSION

 NUMBER OF IRREDUCIBLE ATOMS IN THE CELL:    4

 CARTESIAN COORDINATES (ANGSTROM) - IRREDUCIBLE ATOMS AND SYMMETRY RELATED

 AT.IRR.  AT  AT.N.          X                   Y                   Z
     1     1    29    1.920460000000E+00  0.000000000000E+00  1.920460000000E+00
     1     2    29    6.401589166530E-01  0.000000000000E+00  1.920460000000E+00
     3     3    29    6.401500000000E-01  1.810631000000E+00  6.401500000000E-01
     3     4    29   -6.401500000000E-01 -1.810631000000E+00  6.401500000000E-01
     5     5     8    1.920460000000E+00  1.810631000000E+00 -1.359850000000E+00
     5     6     8    6.401589166530E-01 -1.810631000000E+00 -1.359850000000E+00
     7     7     8    6.401500000000E-01  0.000000000000E+00  3.920460000000E+00
     7     8     8   -6.401500000000E-01  0.000000000000E+00  3.920460000000E+00

 SYMMETRY CHANGED DURING OLD RUN :  INFORMATION ON SPACE GROUP LOST 
 NUMBER OF SYMMETRY OPERATORS         :    4
 *******************************************************************************
 LATTICE PARAMETERS (ANGSTROMS AND DEGREES) - BOHR = 0.5291772083 ANGSTROM
 PRIMITIVE CELL
         A              B              C           ALPHA      BETA       GAMMA 
     2.56061892     3.62126200   500.00000000    90.000000  90.000000  90.000000
 *******************************************************************************
 ATOMS IN THE ASYMMETRIC UNIT    4 - ATOMS IN THE UNIT CELL:    8
     ATOM                 X/A                 Y/B             Z(ANGSTROM)
 *******************************************************************************
      1 T  29 CU   -2.500016353419E-01  0.000000000000E+00  1.920460000000E+00
      2 F  29 CU    2.500016353431E-01  0.000000000000E+00  1.920460000000E+00
      3 T  29 CU    2.499981531174E-01  5.000000000000E-01  6.401500000000E-01
      4 F  29 CU   -2.499981531174E-01 -5.000000000000E-01  6.401500000000E-01
      5 T   8 O    -2.500016353419E-01  5.000000000000E-01 -1.359850000000E+00
      6 F   8 O     2.500016353431E-01 -5.000000000000E-01 -1.359850000000E+00
      7 T   8 O     2.499981531174E-01  0.000000000000E+00  3.920460000000E+00
      8 F   8 O    -2.499981531174E-01  0.000000000000E+00  3.920460000000E+00

 T = ATOM BELONGING TO THE ASYMMETRIC UNIT
 *******************************************************************************
 * GEOMETRY EDITING - INPUT COORDINATES ARE GIVEN IN ANGSTROM         
 *******************************************************************************

 GEOMETRY NOW FULLY CONSISTENT WITH THE GROUP

 GCALCO - MAX INDICES DIRECT LATTICE VECTOR    98    69     0
 NO.OF VECTORS CREATED 6999 STARS 1080 RMAX   271.49459 BOHR

 GEOMETRY FOR WAVE FUNCTION - DIMENSIONALITY OF THE SYSTEM    2
 (NON PERIODIC DIRECTION: LATTICE PARAMETER FORMALLY SET TO 500)
 *******************************************************************************
 LATTICE PARAMETERS (ANGSTROMS AND DEGREES) - BOHR = 0.5291772083 ANGSTROM
 PRIMITIVE CELL
         A              B              C           ALPHA      BETA       GAMMA 
     2.56061892     3.62126200   500.00000000    90.000000  90.000000  90.000000
 *******************************************************************************
 ATOMS IN THE ASYMMETRIC UNIT    4 - ATOMS IN THE UNIT CELL:    8
     ATOM                 X/A                 Y/B             Z(ANGSTROM)
 *******************************************************************************
      1 T  29 CU   -2.500016353419E-01  0.000000000000E+00  1.920460000000E+00
      2 F  29 CU    2.500016353419E-01  0.000000000000E+00  1.920460000000E+00
      3 T  29 CU    2.499981531174E-01  5.000000000000E-01  6.401500000000E-01
      4 F  29 CU   -2.499981531174E-01  5.000000000000E-01  6.401500000000E-01
      5 T   8 O    -2.500016353419E-01  5.000000000000E-01 -1.359850000000E+00
      6 F   8 O     2.500016353419E-01  5.000000000000E-01 -1.359850000000E+00
      7 T   8 O     2.499981531174E-01  0.000000000000E+00  3.920460000000E+00
      8 F   8 O    -2.499981531174E-01  0.000000000000E+00  3.920460000000E+00

 T = ATOM BELONGING TO THE ASYMMETRIC UNIT

 ****    4 SYMMOPS - TRANSLATORS IN FRACTIONAL UNITS
 **** MATRICES AND TRANSLATORS IN THE CRYSTALLOGRAPHIC REFERENCE FRAME
   V INV                    ROTATION MATRICES                   TRANSLATORS
   1   1  1.00  0.00  0.00  0.00  1.00  0.00  0.00  0.00  1.00  0.00  0.00  0.00
   2   2 -1.00  0.00  0.00  0.00 -1.00  0.00  0.00  0.00  1.00  0.00  0.00  0.00
   3   3 -1.00  0.00  0.00  0.00  1.00  0.00  0.00  0.00  1.00  0.00  0.00  0.00
   4   4  1.00 -0.00  0.00  0.00 -1.00  0.00  0.00  0.00  1.00  0.00  0.00  0.00

 DIRECT LATTICE VECTORS CARTESIAN COMPONENTS (ANGSTROM)
          X                    Y                    Z
   0.256061891665E+01   0.000000000000E+00   0.000000000000E+00
  -0.221738345859E-15   0.362126200000E+01   0.000000000000E+00
   0.000000000000E+00   0.000000000000E+00   0.500000000000E+03


 CARTESIAN COORDINATES - PRIMITIVE CELL
 *******************************************************************************
 *      ATOM          X(ANGSTROM)         Y(ANGSTROM)         Z(ANGSTROM)
 *******************************************************************************
    1    29 CU    1.920460000000E+00  0.000000000000E+00  1.920460000000E+00
    2    29 CU    6.401589166500E-01  0.000000000000E+00  1.920460000000E+00
    3    29 CU    6.401500000000E-01  1.810631000000E+00  6.401500000000E-01
    4    29 CU   -6.401500000000E-01  1.810631000000E+00  6.401500000000E-01
    5     8 O     1.920460000000E+00  1.810631000000E+00 -1.359850000000E+00
    6     8 O     6.401589166500E-01  1.810631000000E+00 -1.359850000000E+00
    7     8 O     6.401500000000E-01  0.000000000000E+00  3.920460000000E+00
    8     8 O    -6.401500000000E-01  0.000000000000E+00  3.920460000000E+00

 *******************************************************************************
 STARTING BASIS SET HANDLING 
 *******************************************************************************

 Loading internal basis set: STO-3G              

 Please cite in your publication:
 H - Ne: W.J. Hehre, R.F. Stewart and J.A. Pople, J. Chem. Phys. 2657 (1969).   
                                                                                
                                                                                
                    
 Na - Ar: W.J. Hehre, R. Ditchfield, R.F. Stewart, J.A. Pople, J. Chem. Phys.  2
 769 (1970).                                                                    
                                                                                
                    
 K,Ca: W.J. Pietro, B.A. Levy, W.J. Hehre and R.F. Stewart, Inorg. Chem., 1980, 
 19 (8), pp 2225-2229                                                           
                                                                                
                    
 Ga-Kr: J. Am. Chem. Soc. 19, 2225 (1980).                                      
                                                                                
                                                                                
                    
 Sc-Zn, Y-Cd: W.J. Pietro and W.J. Hehre, J. Comp. Chem. 4, 241 (1983).         
                                                                                
                                                                                
                    

 *******************************************************************************
 LOCAL ATOMIC FUNCTIONS BASIS SET
 *******************************************************************************
   ATOM   X(AU)   Y(AU)   Z(AU)  N. TYPE  EXPONENT  S COEF   P COEF   D/F/G COEF
 *******************************************************************************
   1 CU   3.629   0.000   3.629
                                  1 S  
                                         1.802E+03 1.543E-01 0.000E+00 0.000E+00
                                         3.282E+02 5.353E-01 0.000E+00 0.000E+00
                                         8.882E+01 4.446E-01 0.000E+00 0.000E+00
                                  2 S  
                                         1.441E+02-9.997E-02 0.000E+00 0.000E+00
                                         3.349E+01 3.995E-01 0.000E+00 0.000E+00
                                         1.089E+01 7.001E-01 0.000E+00 0.000E+00
                                  3 S  
                                         1.131E+01-2.278E-01 0.000E+00 0.000E+00
                                         3.449E+00 2.175E-01 0.000E+00 0.000E+00
                                         1.331E+00 9.167E-01 0.000E+00 0.000E+00
                                  4 S  
                                         6.309E-01-3.088E-01 0.000E+00 0.000E+00
                                         2.329E-01 1.961E-02 0.000E+00 0.000E+00
                                         1.028E-01 1.131E+00 0.000E+00 0.000E+00
                           5-     7 P  
                                         1.441E+02 0.000E+00 1.559E-01 0.000E+00
                                         3.349E+01 0.000E+00 6.077E-01 0.000E+00
                                         1.089E+01 0.000E+00 3.920E-01 0.000E+00
                           8-    10 P  
                                         1.131E+01 0.000E+00 4.952E-03 0.000E+00
                                         3.449E+00 0.000E+00 5.778E-01 0.000E+00
                                         1.331E+00 0.000E+00 4.846E-01 0.000E+00
                          11-    13 P  
                                         6.309E-01 0.000E+00-1.215E-01 0.000E+00
                                         2.329E-01 0.000E+00 5.715E-01 0.000E+00
                                         1.028E-01 0.000E+00 5.499E-01 0.000E+00
                          14-    18 D  
                                         9.648E+00 0.000E+00 0.000E+00 2.198E-01
                                         2.943E+00 0.000E+00 0.000E+00 6.555E-01
                                         1.135E+00 0.000E+00 0.000E+00 2.866E-01
   2 CU   1.210   0.000   3.629
   3 CU   1.210   3.422   1.210
   4 CU  -1.210   3.422   1.210
   5 O    3.629   3.422  -2.570
                                 73 S  
                                         1.307E+02 1.543E-01 0.000E+00 0.000E+00
                                         2.381E+01 5.353E-01 0.000E+00 0.000E+00
                                         6.444E+00 4.446E-01 0.000E+00 0.000E+00
                                 74 S  
                                         5.033E+00-9.997E-02 0.000E+00 0.000E+00
                                         1.170E+00 3.995E-01 0.000E+00 0.000E+00
                                         3.804E-01 7.001E-01 0.000E+00 0.000E+00
                          75-    77 P  
                                         5.033E+00 0.000E+00 1.559E-01 0.000E+00
                                         1.170E+00 0.000E+00 6.077E-01 0.000E+00
                                         3.804E-01 0.000E+00 3.920E-01 0.000E+00
   6 O    1.210   3.422  -2.570
   7 O    1.210   0.000   7.409
   8 O   -1.210   0.000   7.409

 *******************************************************************************
 FINISHED BASIS SET HANDLING 
 *******************************************************************************

 INFORMATION **** SET_MPP **** PCRYSTAL CALCULATION
 INFORMATION **** READM2 **** NEW DEFAULT: FOCK/KS MATRIX MIXING SET TO 30 %
 INFORMATION **** READM2 **** NEW DEFAULT: FULL DIRECT SCF MODE
 INFORMATION **** READM2 **** NEW DEFAULT: COULOMB BIPOLAR BUFFER SET TO 32 Mb
 INFORMATION **** READM2 **** NEW DEFAULT: EXCHANGE BIPOLAR BUFFER SET TO 32 Mb

 *******************************************************************************
 * ATOMS TRANSFORMED INTO GHOSTS :   2
   3( 29)   4( 29)
 SYMMETRY MAY BE BROKEN

 *******************************************************************************
 NEW DEFAULT: DFT INTEGRATION GRID INCREASED TO XLGRID
 NEW DEFAULT: DIIS ACCELERATOR ACTIVE
 USE KEYWORD NODIIS TO TURN IT OFF
 *******************************************************************************

 INFORMATION **** TOLINTEG **** COULOMB AND EXCHANGE SERIES TOLERANCES MODIFIED
 INFORMATION **** MAXCYCLE **** MAX NUMBER OF SCF CYCLES SET TO          20

 GHOST ATOMS - REMOVAL OF NUCLEAR CHARGE AND ELECTRONS
 TOTAL NUCLEAR CHARGE        9.000000E+01
 TOTAL ELECTRONIC CHARGE     9.000000E+01
 *******************************************************************************
 N. OF ATOMS PER CELL         8  COULOMB OVERLAP TOL         (T1) 10**   -5
 NUMBER OF SHELLS            44  COULOMB PENETRATION TOL     (T2) 10**   -5
 NUMBER OF AO                92  EXCHANGE OVERLAP TOL        (T3) 10**   -5
 N. OF ELECTRONS PER CELL    90  EXCHANGE PSEUDO OVP (F(G))  (T4) 10**   -5
 CORE ELECTRONS PER CELL     44  EXCHANGE PSEUDO OVP (P(G))  (T5) 10**  -10
 N. OF SYMMETRY OPERATORS     4  POLE ORDER IN MONO ZONE                  4
 *******************************************************************************
 TYPE OF CALCULATION :  RESTRICTED CLOSED SHELL
 KOHN-SHAM HAMILTONIAN

 (EXCHANGE)[CORRELATION] FUNCTIONAL:(BECKE 88)[LEE-YANG-PARR]

 NON-LOCAL WEIGHTING FACTOR (EXCHANGE) =           0.9000
 NON-LOCAL WEIGHTING FACTOR [CORRELATION] =        0.8100

 HYBRID EXCHANGE - PERCENTAGE OF FOCK EXCHANGE    20.0000

 CAPPA:IS1  6;IS2  6;IS3  1; K PTS MONK NET  16; SYMMOPS:K SPACE   8;G SPACE   4

 *******************************************************************************
 MAX NUMBER OF SCF CYCLES      20  CONVERGENCE ON DELTAP        10**-16
 WEIGHT OF F(I) IN F(I+1)      30% CONVERGENCE ON ENERGY        10**- 6
 SHRINK. FACT.(MONKH.)    6  6  1  NUMBER OF K POINTS IN THE IBZ     16
 SHRINKING FACTOR(GILAT NET)   12  NUMBER OF K POINTS(GILAT NET)     49
 *******************************************************************************
 *** K POINTS COORDINATES (OBLIQUE COORDINATES IN UNITS OF IS =  6)
   1-R(  0  0  0)   2-C(  1  0  0)   3-C(  2  0  0)   4-R(  3  0  0)
   5-C(  0  1  0)   6-C(  1  1  0)   7-C(  2  1  0)   8-C(  3  1  0)
   9-C(  0  2  0)  10-C(  1  2  0)  11-C(  2  2  0)  12-C(  3  2  0)
  13-R(  0  3  0)  14-C(  1  3  0)  15-C(  2  3  0)  16-R(  3  3  0)

 DIRECT LATTICE VECTORS COMPON. (A.U.)     RECIP. LATTICE VECTORS COMPON. (A.U.) 
        X            Y            Z              X            Y            Z
    4.8388685    0.0000000    0.0000000      1.2984823    0.0000000    0.0000000
   -0.0000000    6.8431934    0.0000000      0.0000000    0.9181657    0.0000000
    0.0000000    0.0000000  944.8630670      0.0000000    0.0000000    0.0066498

 DISK SPACE FOR EIGENVECTORS (FTN 10)      236992 REALS

 SYMMETRY ADAPTION OF THE BLOCH FUNCTIONS ENABLED
 TTTTTTTTTTTTTTTTTTTTTTTTTTTTTT gordsh1     TELAPSE        0.01 TCPU        0.01

 MATRIX SIZE: P(G)   79100, F(G)   16856, P(G) IRR   12663, F(G) IRR    5983
 MAX G-VECTOR INDEX FOR 1- AND 2-ELECTRON INTEGRALS  65

 TTTTTTTTTTTTTTTTTTTTTTTTTTTTTT INPUT       TELAPSE        0.01 TCPU        0.01

 NEIGHBORS OF THE NON-EQUIVALENT ATOMS

 N = NUMBER OF NEIGHBORS AT DISTANCE R
    ATOM  N     R/ANG      R/AU   NEIGHBORS (ATOM LABELS AND CELL INDICES)
   1 CU   1     1.2803     2.4194    2 CU   0 0 0
   1 CU   1     1.2803     2.4195    2 CU   1 0 0
   1 CU   1     2.0000     3.7795    8 O    1 0 0
   1 CU   2     2.2176     4.1906    4 XX   1-1 0    4 XX   1 0 0
   1 CU   1     2.3747     4.4875    7 O    1 0 0
   1 CU   1     2.3747     4.4875    7 O    0 0 0

   3 XX   1     1.2803     2.4194    4 XX   0 0 0
   3 XX   1     1.2803     2.4195    4 XX   1 0 0
   3 XX   1     2.0000     3.7795    6 O    0 0 0
   3 XX   2     2.2176     4.1906    2 CU   0 0 0    2 CU   0 1 0
   3 XX   1     2.3747     4.4875    5 O   -1 0 0
   3 XX   1     2.3747     4.4875    5 O    0 0 0

   5 O    1     1.2803     2.4194    6 O    0 0 0
   5 O    1     1.2803     2.4195    6 O    1 0 0
   5 O    1     2.0000     3.7795    4 XX   1 0 0
   5 O    1     2.3747     4.4875    3 XX   1 0 0
   5 O    1     2.3747     4.4875    3 XX   0 0 0
   5 O    2     2.5606     4.8389    5 O   -1 0 0    5 O    1 0 0

   7 O    1     1.2803     2.4194    8 O    0 0 0
   7 O    1     1.2803     2.4195    8 O    1 0 0
   7 O    1     2.0000     3.7795    2 CU   0 0 0
   7 O    1     2.3747     4.4875    1 CU  -1 0 0
   7 O    1     2.3747     4.4875    1 CU   0 0 0
   7 O    2     2.5606     4.8389    7 O   -1 0 0    7 O    1 0 0


 SYMMETRY ALLOWED INTERNAL DEGREE(S) OF FREEDOM:   7
 TTTTTTTTTTTTTTTTTTTTTTTTTTTTTT SYMM        TELAPSE        0.01 TCPU        0.01
 TTTTTTTTTTTTTTTTTTTTTTTTTTTTTT INT_SCREEN  TELAPSE        0.01 TCPU        0.01
 INFORMATION **** EXCBUF **** EXCH. BIPO BUFFER: WORDS USED =      354618

 DFT PARAMETERS

     ATOM       ELECTRONS   NET CHARGE   R(ANGSTROM)
   1  29  CU     29.0000      0.0000     1.28000000
   3   0  XX      0.0000      0.0000     0.50000000
   5   8  O       8.0000      0.0000     0.74000000

 SIZE OF GRID=     118412
 TTTTTTTTTTTTTTTTTTTTTTTTTTTTTT MAKE_GRID2  TELAPSE        0.84 TCPU        0.83
 BECKE WEIGHT FUNCTION
 RADSAFE =     2.00
 TOLERANCES - DENSITY:10**- 6; POTENTIAL:10**- 9; GRID WGT:10**-14

 RADIAL INTEGRATION  - INTERVALS (POINTS,UPPER LIMIT):            1( 99,  4.0*R)

 ANGULAR INTEGRATION - INTERVALS (ACCURACY LEVEL [N. POINTS] UPPER LIMIT):
  1(  6[ 146]   0.2)  2( 11[ 302]   0.5)  3( 14[ 590]   0.9)  4( 18[1454]   3.5)
  5( 14[ 590]9999.0)

 GHOST ATOMS - REMOVAL OF NUCLEAR CHARGE AND ELECTRONS
 TOTAL NUCLEAR CHARGE        9.000000E+01
 TOTAL ELECTRONIC CHARGE     9.000000E+01
 TTTTTTTTTTTTTTTTTTTTTTTTTTTTTT INT_CALC    TELAPSE        0.84 TCPU        0.83
 EEEEEEEEEE INT_CALC TERMINATION  DATE 15 02 2022 TIME 16:04:11.4

 *******************************************************************************
 Adsorption tests                                                                
 CRYSTAL - SCF - TYPE OF CALCULATION :  RESTRICTED CLOSED SHELL
 *******************************************************************************

 CAPPA:IS1  6;IS2  6;IS3  1; K PTS MONK NET  16; SYMMOPS:K SPACE   8;G SPACE   4

 TTTTTTTTTTTTTTTTTTTTTTTTTTTTTT SDIK        TELAPSE        0.86 TCPU        0.85

 AAAAAAAAAAAAAAAAAAAAAAAAAAAAAAAAAAAAAAAAAAAAAAAAAAAAAAAAAAAAAAAAAAAAAAAAAAAAAAA
         ATOMIC WAVEFUNCTION(S)


 NUCLEAR CHARGE 29.0  SYMMETRY SPECIES            S    P    D
 N. ELECTRONS   29.0  NUMBER OF PRIMITIVE GTOS   12    9    3
                      NUMBER OF CONTRACTED GTOS   4    3    1
                      NUMBER OF CLOSED SHELLS     4    2    0
                      OPEN SHELL OCCUPATION       0    0    9

  ZNUC SCFIT  TOTAL HF ENERGY   KINETIC ENERGY   VIRIAL THEOREM ACCURACY
  29.0   5   -1.619844227E+03  1.626147454E+03 -1.996123828E+00  5.2E-07

 NUCLEAR CHARGE  8.0  SYMMETRY SPECIES            S    P
 N. ELECTRONS    8.0  NUMBER OF PRIMITIVE GTOS    6    3
                      NUMBER OF CONTRACTED GTOS   2    1
                      NUMBER OF CLOSED SHELLS     2    0
                      OPEN SHELL OCCUPATION       0    4

  ZNUC SCFIT  TOTAL HF ENERGY   KINETIC ENERGY   VIRIAL THEOREM ACCURACY
   8.0   1   -7.380415023E+01  7.344495887E+01 -2.004890620E+00  0.0E+00

 AAAAAAAAAAAAAAAAAAAAAAAAAAAAAAAAAAAAAAAAAAAAAAAAAAAAAAAAAAAAAAAAAAAAAAAAAAAAAAA

 CHARGE NORMALIZATION FACTOR   1.00000000
 TOTAL ATOMIC CHARGES:
  29.0000000  29.0000000   0.0000000   0.0000000   8.0000000   8.0000000
   8.0000000   8.0000000
 TTTTTTTTTTTTTTTTTTTTTTTTTTTTTT MOQGAD      TELAPSE        0.89 TCPU        0.88
 TTTTTTTTTTTTTTTTTTTTTTTTTTTTTT SHELLXN     TELAPSE       67.09 TCPU       66.71
 TTTTTTTTTTTTTTTTTTTTTTTTTTTTTT MONMO3      TELAPSE       67.26 TCPU       66.88
 NUMERICALLY INTEGRATED DENSITY     89.9999908926
 TTTTTTTTTTTTTTTTTTTTTTTTTTTTTT NUMDFT      TELAPSE       69.61 TCPU       69.23
 CYC   0 ETOT(AU) -3.541143951922E+03 DETOT -3.54E+03 tst  0.00E+00 PX  1.00E+00
 TTTTTTTTTTTTTTTTTTTTTTTTTTTTTT DIIS        TELAPSE       69.61 TCPU       69.23
 TTTTTTTTTTTTTTTTTTTTTTTTTTTTTT FDIK        TELAPSE       69.66 TCPU       69.28
 POSSIBLY CONDUCTING STATE - EFERMI(AU)  3.8448754E-01 (RES. CHARGE  4.76E-11;IT. 10)
 TTTTTTTTTTTTTTTTTTTTTTTTTTTTTT PDIG        TELAPSE       69.67 TCPU       69.29
 CHARGE NORMALIZATION FACTOR   1.00000000
 TOTAL ATOMIC CHARGES:
  24.8029862  24.8029862   2.0515907   2.0515907   9.0580605   9.0580605
   9.0873626   9.0873626
 TTTTTTTTTTTTTTTTTTTTTTTTTTTTTT MOQGAD      TELAPSE       69.70 TCPU       69.31
 TTTTTTTTTTTTTTTTTTTTTTTTTTTTTT SHELLXN     TELAPSE      136.54 TCPU      136.15
 TTTTTTTTTTTTTTTTTTTTTTTTTTTTTT MONMO3      TELAPSE      136.71 TCPU      136.32
 NUMERICALLY INTEGRATED DENSITY     89.9994338528
 TTTTTTTTTTTTTTTTTTTTTTTTTTTTTT NUMDFT      TELAPSE      143.00 TCPU      142.61
 CYC   1 ETOT(AU) -3.441084312380E+03 DETOT  1.00E+02 tst  0.00E+00 PX  1.00E+00
 TTTTTTTTTTTTTTTTTTTTTTTTTTTTTT DIIS        TELAPSE      143.00 TCPU      142.62
 DIIS TEST: 0.20773E+03 AT SCF   CYCLE   1 - MIX   30 %
 TTTTTTTTTTTTTTTTTTTTTTTTTTTTTT FDIK        TELAPSE      143.02 TCPU      142.63
 POSSIBLY CONDUCTING STATE - EFERMI(AU) -2.0507369E+00 (RES. CHARGE  3.84E-13;IT. 10)
 TTTTTTTTTTTTTTTTTTTTTTTTTTTTTT PDIG        TELAPSE      143.03 TCPU      142.65
 CHARGE NORMALIZATION FACTOR   1.00000000
 TOTAL ATOMIC CHARGES:
  35.3641410  35.3641410   0.2660166   0.2660166   2.0118153   2.0118153
   7.3580271   7.3580271
 TTTTTTTTTTTTTTTTTTTTTTTTTTTTTT MOQGAD      TELAPSE      143.06 TCPU      142.67
 TTTTTTTTTTTTTTTTTTTTTTTTTTTTTT SHELLXN     TELAPSE      209.64 TCPU      209.24
 TTTTTTTTTTTTTTTTTTTTTTTTTTTTTT MONMO3      TELAPSE      209.81 TCPU      209.41
 NUMERICALLY INTEGRATED DENSITY     89.9970959531
 TTTTTTTTTTTTTTTTTTTTTTTTTTTTTT NUMDFT      TELAPSE      216.10 TCPU      215.69
 CYC   2 ETOT(AU) -2.896499711672E+03 DETOT  5.45E+02 tst  3.47E+02 PX  3.19E+02
 TTTTTTTTTTTTTTTTTTTTTTTTTTTTTT DIIS        TELAPSE      216.10 TCPU      215.70
 DIIS TEST: 0.84111E+02 AT SCF   CYCLE   2 - DIIS ACTIVE - HISTORY:     2 CYCLES
 TTTTTTTTTTTTTTTTTTTTTTTTTTTTTT FDIK        TELAPSE      216.12 TCPU      215.72
 POSSIBLY CONDUCTING STATE - EFERMI(AU)  6.3196928E+00 (RES. CHARGE  2.13E-14;IT. 10)
 TTTTTTTTTTTTTTTTTTTTTTTTTTTTTT PDIG        TELAPSE      216.13 TCPU      215.73
 CHARGE NORMALIZATION FACTOR   1.00000000
 TOTAL ATOMIC CHARGES:
  24.5781684  24.5781684   8.4238296   8.4238296  10.0029581  10.0029581
   1.9950439   1.9950439
 TTTTTTTTTTTTTTTTTTTTTTTTTTTTTT MOQGAD      TELAPSE      216.16 TCPU      215.75
 TTTTTTTTTTTTTTTTTTTTTTTTTTTTTT SHELLXN     TELAPSE      283.72 TCPU      282.44
 TTTTTTTTTTTTTTTTTTTTTTTTTTTTTT MONMO3      TELAPSE      283.89 TCPU      282.60
 NUMERICALLY INTEGRATED DENSITY     89.9994855793
 TTTTTTTTTTTTTTTTTTTTTTTTTTTTTT NUMDFT      TELAPSE      290.17 TCPU      288.88
 CYC   3 ETOT(AU) -3.164390613805E+03 DETOT -2.68E+02 tst  3.56E+02 PX  3.20E+02
 TTTTTTTTTTTTTTTTTTTTTTTTTTTTTT DIIS        TELAPSE      290.17 TCPU      288.89
 DIIS TEST: 0.20238E+03 AT SCF   CYCLE   3 - DIIS ACTIVE - HISTORY:     3 CYCLES
 TTTTTTTTTTTTTTTTTTTTTTTTTTTTTT FDIK        TELAPSE      290.19 TCPU      288.90
 POSSIBLY CONDUCTING STATE - EFERMI(AU)  3.1582764E+00 (RES. CHARGE  2.49E-12;IT. 12)
 TTTTTTTTTTTTTTTTTTTTTTTTTTTTTT PDIG        TELAPSE      290.21 TCPU      288.92
 CHARGE NORMALIZATION FACTOR   1.00000000
 TOTAL ATOMIC CHARGES:
  22.6626764  22.6626764   2.2182224   2.2182224  10.0719629  10.0719629
  10.0471382  10.0471382
 TTTTTTTTTTTTTTTTTTTTTTTTTTTTTT MOQGAD      TELAPSE      290.23 TCPU      288.94
 TTTTTTTTTTTTTTTTTTTTTTTTTTTTTT SHELLXN     TELAPSE      357.06 TCPU      355.76
 TTTTTTTTTTTTTTTTTTTTTTTTTTTTTT MONMO3      TELAPSE      357.23 TCPU      355.93
 NUMERICALLY INTEGRATED DENSITY     90.0000169608
 TTTTTTTTTTTTTTTTTTTTTTTTTTTTTT NUMDFT      TELAPSE      363.49 TCPU      362.20
 CYC   4 ETOT(AU) -3.409752177565E+03 DETOT -2.45E+02 tst  3.78E+01 PX  2.58E+01
 TTTTTTTTTTTTTTTTTTTTTTTTTTTTTT DIIS        TELAPSE      363.50 TCPU      362.20
 DIIS TEST: 0.56562E+02 AT SCF   CYCLE   4 - DIIS ACTIVE - HISTORY:     4 CYCLES
 TTTTTTTTTTTTTTTTTTTTTTTTTTTTTT FDIK        TELAPSE      363.52 TCPU      362.22
 POSSIBLY CONDUCTING STATE - EFERMI(AU) -2.1555594E-01 (RES. CHARGE  0.00E+00;IT. 10)
 TTTTTTTTTTTTTTTTTTTTTTTTTTTTTT PDIG        TELAPSE      363.53 TCPU      362.23
 CHARGE NORMALIZATION FACTOR   1.00000000
 TOTAL ATOMIC CHARGES:
  32.3151744  32.3151744   1.0920503   1.0920503   7.7173155   7.7173155
   3.8754598   3.8754598
 TTTTTTTTTTTTTTTTTTTTTTTTTTTTTT MOQGAD      TELAPSE      363.55 TCPU      362.25
 TTTTTTTTTTTTTTTTTTTTTTTTTTTTTT SHELLXN     TELAPSE      432.22 TCPU      430.28
 TTTTTTTTTTTTTTTTTTTTTTTTTTTTTT MONMO3      TELAPSE      432.39 TCPU      430.45
 NUMERICALLY INTEGRATED DENSITY     89.9995138517
 TTTTTTTTTTTTTTTTTTTTTTTTTTTTTT NUMDFT      TELAPSE      438.69 TCPU      436.74
 CYC   5 ETOT(AU) -3.475977453157E+03 DETOT -6.62E+01 tst  2.93E+01 PX  2.66E+01
 TTTTTTTTTTTTTTTTTTTTTTTTTTTTTT DIIS        TELAPSE      438.69 TCPU      436.75
 DIIS TEST: 0.53111E+02 AT SCF   CYCLE   5 - DIIS ACTIVE - HISTORY:     5 CYCLES
 TTTTTTTTTTTTTTTTTTTTTTTTTTTTTT FDIK        TELAPSE      438.71 TCPU      436.77
 POSSIBLY CONDUCTING STATE - EFERMI(AU)  1.5276033E-01 (RES. CHARGE  6.68E-13;IT. 12)
 TTTTTTTTTTTTTTTTTTTTTTTTTTTTTT PDIG        TELAPSE      438.72 TCPU      436.78
 CHARGE NORMALIZATION FACTOR   1.00000000
 TOTAL ATOMIC CHARGES:
  31.3612922  31.3612922   1.0611882   1.0611882   2.5963419   2.5963419
   9.9811777   9.9811777
 TTTTTTTTTTTTTTTTTTTTTTTTTTTTTT MOQGAD      TELAPSE      438.74 TCPU      436.80
 TTTTTTTTTTTTTTTTTTTTTTTTTTTTTT SHELLXN     TELAPSE      506.27 TCPU      504.27
 TTTTTTTTTTTTTTTTTTTTTTTTTTTTTT MONMO3      TELAPSE      506.44 TCPU      504.44
 NUMERICALLY INTEGRATED DENSITY     90.0000600488
 TTTTTTTTTTTTTTTTTTTTTTTTTTTTTT NUMDFT      TELAPSE      512.85 TCPU      510.80
 CYC   6 ETOT(AU) -3.352870331534E+03 DETOT  1.23E+02 tst  2.50E+01 PX  3.08E+01
 TTTTTTTTTTTTTTTTTTTTTTTTTTTTTT DIIS        TELAPSE      512.86 TCPU      510.81
 DIIS TEST: 0.61545E+02 AT SCF   CYCLE   6 - DIIS ACTIVE - HISTORY:     6 CYCLES
 TTTTTTTTTTTTTTTTTTTTTTTTTTTTTT FDIK        TELAPSE      512.87 TCPU      510.82
 POSSIBLY CONDUCTING STATE - EFERMI(AU)  1.0487094E-01 (RES. CHARGE  1.70E-11;IT.  8)
 TTTTTTTTTTTTTTTTTTTTTTTTTTTTTT PDIG        TELAPSE      512.89 TCPU      510.83
 CHARGE NORMALIZATION FACTOR   1.00000000
 TOTAL ATOMIC CHARGES:
  29.2444415  29.2444415   1.0525345   1.0525345   9.3857579   9.3857579
   5.3172660   5.3172660
 TTTTTTTTTTTTTTTTTTTTTTTTTTTTTT MOQGAD      TELAPSE      512.91 TCPU      510.86
 TTTTTTTTTTTTTTTTTTTTTTTTTTTTTT SHELLXN     TELAPSE      580.63 TCPU      578.52
 TTTTTTTTTTTTTTTTTTTTTTTTTTTTTT MONMO3      TELAPSE      580.80 TCPU      578.69
 NUMERICALLY INTEGRATED DENSITY     89.9992289252
 TTTTTTTTTTTTTTTTTTTTTTTTTTTTTT NUMDFT      TELAPSE      587.13 TCPU      585.02
 CYC   7 ETOT(AU) -3.488072344264E+03 DETOT -1.35E+02 tst  8.74E-01 PX  9.38E+01
 TTTTTTTTTTTTTTTTTTTTTTTTTTTTTT DIIS        TELAPSE      587.14 TCPU      585.02
 DIIS TEST: 0.37869E+02 AT SCF   CYCLE   7 - DIIS ACTIVE - HISTORY:     7 CYCLES
 TTTTTTTTTTTTTTTTTTTTTTTTTTTTTT FDIK        TELAPSE      587.15 TCPU      585.04
 POSSIBLY CONDUCTING STATE - EFERMI(AU)  5.4123116E-02 (RES. CHARGE  1.59E-07;IT. 41)
 TTTTTTTTTTTTTTTTTTTTTTTTTTTTTT PDIG        TELAPSE      587.17 TCPU      585.05
 CHARGE NORMALIZATION FACTOR   1.00000000
 TOTAL ATOMIC CHARGES:
  30.2768957  30.2768957   1.1436014   1.1436014   4.0942726   4.0942726
   9.4852304   9.4852304
 TTTTTTTTTTTTTTTTTTTTTTTTTTTTTT MOQGAD      TELAPSE      587.19 TCPU      585.08
 TTTTTTTTTTTTTTTTTTTTTTTTTTTTTT SHELLXN     TELAPSE      654.95 TCPU      652.75
 TTTTTTTTTTTTTTTTTTTTTTTTTTTTTT MONMO3      TELAPSE      655.12 TCPU      652.92
 NUMERICALLY INTEGRATED DENSITY     89.9998581049
 TTTTTTTTTTTTTTTTTTTTTTTTTTTTTT NUMDFT      TELAPSE      661.46 TCPU      659.26
 CYC   8 ETOT(AU) -3.246491562076E+03 DETOT  2.42E+02 tst  3.16E+00 PX  1.62E+02
 TTTTTTTTTTTTTTTTTTTTTTTTTTTTTT DIIS        TELAPSE      661.47 TCPU      659.26
 DIIS TEST: 0.56982E+02 AT SCF   CYCLE   8 - DIIS ACTIVE - HISTORY:     8 CYCLES
 TTTTTTTTTTTTTTTTTTTTTTTTTTTTTT FDIK        TELAPSE      661.49 TCPU      659.28
 POSSIBLY CONDUCTING STATE - EFERMI(AU)  4.4844938E-01 (RES. CHARGE  3.11E-10;IT. 12)
 TTTTTTTTTTTTTTTTTTTTTTTTTTTTTT PDIG        TELAPSE      661.50 TCPU      659.29
 CHARGE NORMALIZATION FACTOR   1.00000000
 TOTAL ATOMIC CHARGES:
  25.1683154  25.1683154   1.2671062   1.2671062   9.1944410   9.1944410
   9.3701373   9.3701373
 TTTTTTTTTTTTTTTTTTTTTTTTTTTTTT MOQGAD      TELAPSE      661.54 TCPU      659.32
 TTTTTTTTTTTTTTTTTTTTTTTTTTTTTT SHELLXN     TELAPSE      729.27 TCPU      726.99
 TTTTTTTTTTTTTTTTTTTTTTTTTTTTTT MONMO3      TELAPSE      729.44 TCPU      727.16
 NUMERICALLY INTEGRATED DENSITY     89.9989573910
 TTTTTTTTTTTTTTTTTTTTTTTTTTTTTT NUMDFT      TELAPSE      735.74 TCPU      733.46
 CYC   9 ETOT(AU) -3.201977797223E+03 DETOT  4.45E+01 tst  5.63E+01 PX  1.29E+02
 TTTTTTTTTTTTTTTTTTTTTTTTTTTTTT DIIS        TELAPSE      735.75 TCPU      733.47
 DIIS TEST: 0.19772E+03 AT SCF   CYCLE   9 - DIIS ACTIVE - HISTORY:     9 CYCLES
 TTTTTTTTTTTTTTTTTTTTTTTTTTTTTT FDIK        TELAPSE      735.77 TCPU      733.49
 POSSIBLY CONDUCTING STATE - EFERMI(AU)  5.0834359E-02 (RES. CHARGE  0.00E+00;IT. 10)
 TTTTTTTTTTTTTTTTTTTTTTTTTTTTTT PDIG        TELAPSE      735.78 TCPU      733.50
 CHARGE NORMALIZATION FACTOR   1.00000000
 TOTAL ATOMIC CHARGES:
  30.2581021  30.2581021   1.1398067   1.1398067   4.0470025   4.0470025
   9.5550887   9.5550887
 TTTTTTTTTTTTTTTTTTTTTTTTTTTTTT MOQGAD      TELAPSE      735.80 TCPU      733.52
 TTTTTTTTTTTTTTTTTTTTTTTTTTTTTT SHELLXN     TELAPSE      803.61 TCPU      801.24
 TTTTTTTTTTTTTTTTTTTTTTTTTTTTTT MONMO3      TELAPSE      803.78 TCPU      801.41
 NUMERICALLY INTEGRATED DENSITY     90.0000909131
 TTTTTTTTTTTTTTTTTTTTTTTTTTTTTT NUMDFT      TELAPSE      810.15 TCPU      807.75
 CYC  10 ETOT(AU) -3.446429892120E+03 DETOT -2.44E+02 tst  8.20E+01 PX  1.12E+02
 TTTTTTTTTTTTTTTTTTTTTTTTTTTTTT DIIS        TELAPSE      810.16 TCPU      807.76
 DIIS TEST: 0.46773E+02 AT SCF   CYCLE  10 - DIIS ACTIVE - HISTORY:    10 CYCLES
 TTTTTTTTTTTTTTTTTTTTTTTTTTTTTT FDIK        TELAPSE      810.18 TCPU      807.77
 POSSIBLY CONDUCTING STATE - EFERMI(AU)  3.4481657E-01 (RES. CHARGE  8.53E-14;IT. 12)
 TTTTTTTTTTTTTTTTTTTTTTTTTTTTTT PDIG        TELAPSE      810.19 TCPU      807.79
 CHARGE NORMALIZATION FACTOR   1.00000000
 TOTAL ATOMIC CHARGES:
  26.5009193  26.5009193   1.4873909   1.4873909   9.9575147   9.9575147
   7.0541750   7.0541750
 TTTTTTTTTTTTTTTTTTTTTTTTTTTTTT MOQGAD      TELAPSE      810.21 TCPU      807.81
 TTTTTTTTTTTTTTTTTTTTTTTTTTTTTT SHELLXN     TELAPSE      877.96 TCPU      875.49
 TTTTTTTTTTTTTTTTTTTTTTTTTTTTTT MONMO3      TELAPSE      878.13 TCPU      875.66
 NUMERICALLY INTEGRATED DENSITY     90.0000387051
 TTTTTTTTTTTTTTTTTTTTTTTTTTTTTT NUMDFT      TELAPSE      884.41 TCPU      881.95
 CYC  11 ETOT(AU) -3.253772186191E+03 DETOT  1.93E+02 tst  4.95E+01 PX  7.63E+01
 TTTTTTTTTTTTTTTTTTTTTTTTTTTTTT DIIS        TELAPSE      884.42 TCPU      881.95
 DIIS TEST: 0.15935E+03 AT SCF   CYCLE  11 - DIIS ACTIVE - HISTORY:    11 CYCLES
 TTTTTTTTTTTTTTTTTTTTTTTTTTTTTT FDIK        TELAPSE      884.44 TCPU      881.97
 POSSIBLY CONDUCTING STATE - EFERMI(AU) -5.1779971E-02 (RES. CHARGE  1.42E-14;IT. 10)
 TTTTTTTTTTTTTTTTTTTTTTTTTTTTTT PDIG        TELAPSE      884.45 TCPU      881.98
 CHARGE NORMALIZATION FACTOR   1.00000000
 TOTAL ATOMIC CHARGES:
  29.4433008  29.4433008   1.1343607   1.1343607   8.0425659   8.0425659
   6.3797726   6.3797726
 TTTTTTTTTTTTTTTTTTTTTTTTTTTTTT MOQGAD      TELAPSE      884.47 TCPU      882.00
 TTTTTTTTTTTTTTTTTTTTTTTTTTTTTT SHELLXN     TELAPSE      952.12 TCPU      949.59
 TTTTTTTTTTTTTTTTTTTTTTTTTTTTTT MONMO3      TELAPSE      952.29 TCPU      949.76
 NUMERICALLY INTEGRATED DENSITY     89.9993260184
 TTTTTTTTTTTTTTTTTTTTTTTTTTTTTT NUMDFT      TELAPSE      958.59 TCPU      956.07
 CYC  12 ETOT(AU) -3.370662149392E+03 DETOT -1.17E+02 tst  1.09E+01 PX  9.59E+01
 TTTTTTTTTTTTTTTTTTTTTTTTTTTTTT DIIS        TELAPSE      958.60 TCPU      956.07
 DIIS TEST: 0.52146E+02 AT SCF   CYCLE  12 - DIIS ACTIVE - HISTORY:    12 CYCLES
 TTTTTTTTTTTTTTTTTTTTTTTTTTTTTT FDIK        TELAPSE      958.62 TCPU      956.09
 POSSIBLY CONDUCTING STATE - EFERMI(AU) -4.4990104E-02 (RES. CHARGE  9.02E-13;IT. 10)
 TTTTTTTTTTTTTTTTTTTTTTTTTTTTTT PDIG        TELAPSE      958.63 TCPU      956.10
 CHARGE NORMALIZATION FACTOR   1.00000000
 TOTAL ATOMIC CHARGES:
  29.4340416  29.4340416   1.0817787   1.0817787   8.0663238   8.0663238
   6.4178559   6.4178559
 TTTTTTTTTTTTTTTTTTTTTTTTTTTTTT MOQGAD      TELAPSE      958.66 TCPU      956.13
 TTTTTTTTTTTTTTTTTTTTTTTTTTTTTT SHELLXN     TELAPSE     1026.36 TCPU     1023.78
 TTTTTTTTTTTTTTTTTTTTTTTTTTTTTT MONMO3      TELAPSE     1026.54 TCPU     1023.95
 NUMERICALLY INTEGRATED DENSITY     89.9998793778
 TTTTTTTTTTTTTTTTTTTTTTTTTTTTTT NUMDFT      TELAPSE     1032.86 TCPU     1030.27
 CYC  13 ETOT(AU) -3.387408294445E+03 DETOT -1.67E+01 tst  7.62E-01 PX  4.19E+01
 TTTTTTTTTTTTTTTTTTTTTTTTTTTTTT DIIS        TELAPSE     1032.87 TCPU     1030.28
 DIIS TEST: 0.10674E+03 AT SCF   CYCLE  13 - DIIS ACTIVE - HISTORY:    13 CYCLES
 TTTTTTTTTTTTTTTTTTTTTTTTTTTTTT FDIK        TELAPSE     1032.89 TCPU     1030.29
 POSSIBLY CONDUCTING STATE - EFERMI(AU)  2.5013678E-01 (RES. CHARGE  7.11E-15;IT. 10)
 TTTTTTTTTTTTTTTTTTTTTTTTTTTTTT PDIG        TELAPSE     1032.90 TCPU     1030.30
 CHARGE NORMALIZATION FACTOR   1.00000000
 TOTAL ATOMIC CHARGES:
  27.2497286  27.2497286   1.4132962   1.4132962   9.5819708   9.5819708
   6.7550045   6.7550045
 TTTTTTTTTTTTTTTTTTTTTTTTTTTTTT MOQGAD      TELAPSE     1032.92 TCPU     1030.33
 TTTTTTTTTTTTTTTTTTTTTTTTTTTTTT SHELLXN     TELAPSE     1100.83 TCPU     1098.22
 TTTTTTTTTTTTTTTTTTTTTTTTTTTTTT MONMO3      TELAPSE     1101.00 TCPU     1098.39
 NUMERICALLY INTEGRATED DENSITY     89.9988016248
 TTTTTTTTTTTTTTTTTTTTTTTTTTTTTT NUMDFT      TELAPSE     1107.30 TCPU     1104.68
 CYC  14 ETOT(AU) -2.972137756542E+03 DETOT  4.15E+02 tst  3.44E+00 PX  6.08E+01
 TTTTTTTTTTTTTTTTTTTTTTTTTTTTTT DIIS        TELAPSE     1107.30 TCPU     1104.69
 DIIS TEST: 0.26514E+03 AT SCF   CYCLE  14 - DIIS ACTIVE - HISTORY:    14 CYCLES
 TTTTTTTTTTTTTTTTTTTTTTTTTTTTTT FDIK        TELAPSE     1107.32 TCPU     1104.70
 POSSIBLY CONDUCTING STATE - EFERMI(AU)  1.6073592E-01 (RES. CHARGE  1.79E-11;IT.  8)
 TTTTTTTTTTTTTTTTTTTTTTTTTTTTTT PDIG        TELAPSE     1107.33 TCPU     1104.72
 CHARGE NORMALIZATION FACTOR   1.00000000
 TOTAL ATOMIC CHARGES:
  28.0188307  28.0188307   1.5135606   1.5135606   9.5754045   9.5754045
   5.8922043   5.8922043
 TTTTTTTTTTTTTTTTTTTTTTTTTTTTTT MOQGAD      TELAPSE     1107.36 TCPU     1104.74
 TTTTTTTTTTTTTTTTTTTTTTTTTTTTTT SHELLXN     TELAPSE     1175.91 TCPU     1172.92
 TTTTTTTTTTTTTTTTTTTTTTTTTTTTTT MONMO3      TELAPSE     1176.08 TCPU     1173.09
 NUMERICALLY INTEGRATED DENSITY     89.9986728174
 TTTTTTTTTTTTTTTTTTTTTTTTTTTTTT NUMDFT      TELAPSE     1182.38 TCPU     1179.39
 CYC  15 ETOT(AU) -3.228835994049E+03 DETOT -2.57E+02 tst  3.51E+00 PX  1.52E+02
 TTTTTTTTTTTTTTTTTTTTTTTTTTTTTT DIIS        TELAPSE     1182.39 TCPU     1179.40
 DIIS TEST: 0.35680E+02 AT SCF   CYCLE  15 - DIIS ACTIVE - HISTORY:    15 CYCLES
 TTTTTTTTTTTTTTTTTTTTTTTTTTTTTT FDIK        TELAPSE     1182.41 TCPU     1179.42
 POSSIBLY CONDUCTING STATE - EFERMI(AU)  1.6172123E-01 (RES. CHARGE  7.67E-12;IT.  8)
 TTTTTTTTTTTTTTTTTTTTTTTTTTTTTT PDIG        TELAPSE     1182.42 TCPU     1179.43
 CHARGE NORMALIZATION FACTOR   1.00000000
 TOTAL ATOMIC CHARGES:
  28.0182005  28.0182005   1.5104824   1.5104824   9.5778355   9.5778355
   5.8934816   5.8934816
 TTTTTTTTTTTTTTTTTTTTTTTTTTTTTT MOQGAD      TELAPSE     1182.45 TCPU     1179.45
 TTTTTTTTTTTTTTTTTTTTTTTTTTTTTT SHELLXN     TELAPSE     1250.06 TCPU     1247.05
 TTTTTTTTTTTTTTTTTTTTTTTTTTTTTT MONMO3      TELAPSE     1250.23 TCPU     1247.22
 NUMERICALLY INTEGRATED DENSITY     89.9986756883
 TTTTTTTTTTTTTTTTTTTTTTTTTTTTTT NUMDFT      TELAPSE     1256.54 TCPU     1253.52
 CYC  16 ETOT(AU) -3.227358574674E+03 DETOT  1.48E+00 tst  3.63E-03 PX  4.25E-01
 TTTTTTTTTTTTTTTTTTTTTTTTTTTTTT DIIS        TELAPSE     1256.54 TCPU     1253.53
 DIIS TEST: 0.35255E+02 AT SCF   CYCLE  16 - DIIS ACTIVE - HISTORY:    16 CYCLES
 TTTTTTTTTTTTTTTTTTTTTTTTTTTTTT FDIK        TELAPSE     1256.56 TCPU     1253.54
 POSSIBLY CONDUCTING STATE - EFERMI(AU)  1.7117308E-01 (RES. CHARGE  1.02E-11;IT. 12)
 TTTTTTTTTTTTTTTTTTTTTTTTTTTTTT PDIG        TELAPSE     1256.57 TCPU     1253.56
 CHARGE NORMALIZATION FACTOR   1.00000000
 TOTAL ATOMIC CHARGES:
  28.0089627  28.0089627   1.5076835   1.5076835   9.6082420   9.6082420
   5.8751118   5.8751118
 TTTTTTTTTTTTTTTTTTTTTTTTTTTTTT MOQGAD      TELAPSE     1256.60 TCPU     1253.58
 TTTTTTTTTTTTTTTTTTTTTTTTTTTTTT SHELLXN     TELAPSE     1324.28 TCPU     1321.23
 TTTTTTTTTTTTTTTTTTTTTTTTTTTTTT MONMO3      TELAPSE     1324.45 TCPU     1321.40
 NUMERICALLY INTEGRATED DENSITY     89.9986969360
 TTTTTTTTTTTTTTTTTTTTTTTTTTTTTT NUMDFT      TELAPSE     1330.74 TCPU     1327.70
 CYC  17 ETOT(AU) -3.219423322895E+03 DETOT  7.94E+00 tst  1.01E-02 PX  1.68E+00
 TTTTTTTTTTTTTTTTTTTTTTTTTTTTTT DIIS        TELAPSE     1330.75 TCPU     1327.71
 DIIS TEST: 0.36445E+02 AT SCF   CYCLE  17 - DIIS ACTIVE - HISTORY:    17 CYCLES
 TTTTTTTTTTTTTTTTTTTTTTTTTTTTTT FDIK        TELAPSE     1330.77 TCPU     1327.72
 POSSIBLY CONDUCTING STATE - EFERMI(AU)  2.3996628E-02 (RES. CHARGE  8.36E-12;IT. 10)
 TTTTTTTTTTTTTTTTTTTTTTTTTTTTTT PDIG        TELAPSE     1330.78 TCPU     1327.73
 CHARGE NORMALIZATION FACTOR   1.00000000
 TOTAL ATOMIC CHARGES:
  28.1388821  28.1388821   1.3078075   1.3078075   9.2129512   9.2129512
   6.3403592   6.3403592
 TTTTTTTTTTTTTTTTTTTTTTTTTTTTTT MOQGAD      TELAPSE     1330.80 TCPU     1327.76
 TTTTTTTTTTTTTTTTTTTTTTTTTTTTTT SHELLXN     TELAPSE     1398.39 TCPU     1395.33
 TTTTTTTTTTTTTTTTTTTTTTTTTTTTTT MONMO3      TELAPSE     1398.56 TCPU     1395.50
 NUMERICALLY INTEGRATED DENSITY     89.9985791974
 TTTTTTTTTTTTTTTTTTTTTTTTTTTTTT NUMDFT      TELAPSE     1404.90 TCPU     1401.84
 CYC  18 ETOT(AU) -3.362840999745E+03 DETOT -1.43E+02 tst  6.45E+00 PX  3.73E+01
 TTTTTTTTTTTTTTTTTTTTTTTTTTTTTT DIIS        TELAPSE     1404.91 TCPU     1401.84
 DIIS TEST: 0.22606E+02 AT SCF   CYCLE  18 - DIIS ACTIVE - HISTORY:    18 CYCLES
 TTTTTTTTTTTTTTTTTTTTTTTTTTTTTT FDIK        TELAPSE     1404.92 TCPU     1401.86
 POSSIBLY CONDUCTING STATE - EFERMI(AU) -1.0555584E-01 (RES. CHARGE  4.72E-12;IT. 10)
 TTTTTTTTTTTTTTTTTTTTTTTTTTTTTT PDIG        TELAPSE     1404.93 TCPU     1401.87
 CHARGE NORMALIZATION FACTOR   1.00000000
 TOTAL ATOMIC CHARGES:
  29.8071490  29.8071490   1.4240579   1.4240579   6.9636828   6.9636828
   6.8051104   6.8051104
 TTTTTTTTTTTTTTTTTTTTTTTTTTTTTT MOQGAD      TELAPSE     1404.96 TCPU     1401.90
 TTTTTTTTTTTTTTTTTTTTTTTTTTTTTT SHELLXN     TELAPSE     1472.67 TCPU     1469.57
 TTTTTTTTTTTTTTTTTTTTTTTTTTTTTT MONMO3      TELAPSE     1472.85 TCPU     1469.74
 NUMERICALLY INTEGRATED DENSITY     89.9989616124
 TTTTTTTTTTTTTTTTTTTTTTTTTTTTTT NUMDFT      TELAPSE     1479.20 TCPU     1476.09
 CYC  19 ETOT(AU) -3.446186921672E+03 DETOT -8.33E+01 tst  1.11E+02 PX  9.73E+01
 TTTTTTTTTTTTTTTTTTTTTTTTTTTTTT DIIS        TELAPSE     1479.20 TCPU     1476.09
 DIIS TEST: 0.12722E+02 AT SCF   CYCLE  19 - DIIS ACTIVE - HISTORY:    19 CYCLES
 TTTTTTTTTTTTTTTTTTTTTTTTTTTTTT FDIK        TELAPSE     1479.22 TCPU     1476.11
 POSSIBLY CONDUCTING STATE - EFERMI(AU)  3.5155976E-02 (RES. CHARGE  7.11E-15;IT. 10)
 TTTTTTTTTTTTTTTTTTTTTTTTTTTTTT PDIG        TELAPSE     1479.23 TCPU     1476.12
 CHARGE NORMALIZATION FACTOR   1.00000000
 TOTAL ATOMIC CHARGES:
  28.1832697  28.1832697   1.5025095   1.5025095   9.2130724   9.2130724
   6.1011484   6.1011484
 TTTTTTTTTTTTTTTTTTTTTTTTTTTTTT MOQGAD      TELAPSE     1479.26 TCPU     1476.15
 TTTTTTTTTTTTTTTTTTTTTTTTTTTTTT SHELLXN     TELAPSE     1547.48 TCPU     1544.07

 ::: DIPOLE MOMENT ALONG NON PERIODIC DIRECTIONS:
 ::: A.U.     (Z) -3.65514E+01
 ::: DEBYE         9.29043E+01

 +++ ENERGIES IN A.U. +++
 ::: EXT EL-POLE                                  -5.8603018045833E+03
 ::: EXT EL-SPHEROPOLE                             0.0000000000000E+00
 ::: BIELET ZONE E-E                               4.5117623906367E+03
 ::: TOTAL E-E                                    -1.3485394139466E+03
 ::: TOTAL E-N + N-E                              -2.3576245671369E+03
 ::: TOTAL N-N                                    -2.9631107538032E+03
 ::: KINETIC ENERGY                                3.5301388243066E+03
 ::: PSEUDO TOTAL   ENERGY                        -3.1391359105801E+03
 ::: VIRIAL COEFFICIENT                            1.0586275013805E+00
 TTTTTTTTTTTTTTTTTTTTTTTTTTTTTT MONMO3      TELAPSE     1547.65 TCPU     1544.24
 NUMERICALLY INTEGRATED DENSITY     89.9999956364
 TTTTTTTTTTTTTTTTTTTTTTTTTTTTTT NUMDFT      TELAPSE     1554.00 TCPU     1550.58
 CYC  20 ETOT(AU) -3.273315056397E+03 DETOT  1.73E+02 tst  1.15E+01 PX  9.73E+01

 == SCF ENDED - TOO MANY CYCLES            E(AU) -3.2733150563967E+03 CYCLES  20


 ENERGY EXPRESSION=HARTREE+FOCK EXCH*0.20000+(BECKE      EXCH)*0.80000+LYP        CORR


 TOTAL ENERGY(DFT)(AU)( 20) -3.2733150563967E+03 DE 1.7E+02 tester 1.1E+01
 TTTTTTTTTTTTTTTTTTTTTTTTTTTTTT EDFT        TELAPSE     1554.00 TCPU     1550.58
 EIGENVECTORS IN FORTRAN UNIT  8
 TTTTTTTTTTTTTTTTTTTTTTTTTTTTTT END         TELAPSE     1554.02 TCPU     1550.60
 EEEEEEEEEE TERMINATION  DATE 15 02 2022 TIME 16:30:04.6
Tue 15 Feb 2022 16:30:04 GMT
Contents of temporary directory:
total 14792
-rw-r--r--  1 brunocamino  admin   957440 15 Feb 16:28 diis_Fg
-rw-r--r--  1 brunocamino  admin   374976 15 Feb 16:27 diis_Fia1
-rw-r--r--  1 brunocamino  admin   395808 15 Feb 16:28 diis_Fia2
-rw-r--r--  1 brunocamino  admin        0 15 Feb 16:04 diis_Sk
-rw-r--r--  1 brunocamino  admin  1190112 15 Feb 16:27 fort.10
-rw-r--r--  1 brunocamino  admin    47872 15 Feb 16:28 fort.11
-rw-r--r--  1 brunocamino  admin     1723 15 Feb 16:04 fort.34
-rw-r--r--  1 brunocamino  admin    66880 15 Feb 16:04 fort.61
-rw-r--r--  1 brunocamino  admin    42752 15 Feb 16:04 fort.62
-rw-r--r--  1 brunocamino  admin  1190112 15 Feb 16:28 fort.8
-rw-r--r--  1 brunocamino  admin   302348 15 Feb 16:30 fort.9
-rw-r--r--  1 brunocamino  admin   111728 15 Feb 16:27 fort.95
-rw-r--r--  1 brunocamino  admin   782991 15 Feb 16:30 fort.98
wave function binary file /Users/brunocamino/Desktop/Imperial/cmsg_icl/ml-surface-adsorption/data/Cu_O_100_5_BSSE_sub.f9
file fort.98 saved as /Users/brunocamino/Desktop/Imperial/cmsg_icl/ml-surface-adsorption/data/Cu_O_100_5_BSSE_sub.f98
geometry input file fort.34 saved as /Users/brunocamino/Desktop/Imperial/cmsg_icl/ml-surface-adsorption/data/Cu_O_100_5_BSSE_sub.gui
temporary directory /Users/brunocamino/crystal/tmp removed
