date Tue 15 Feb 2022 08:45:50 GMT
hostname MacBook-Pro-3.local
system Darwin MacBook-Pro-3.local 21.3.0 Darwin Kernel Version 21.3.0: Wed Jan 5 21:37:58 PST 2022; root:xnu-8019.80.24~20/RELEASE_ARM64_T8101 arm64
user brunocamino
output data in /Users/brunocamino/Desktop/Imperial/cmsg_icl/ml-surface-adsorption/data/Cu_O_100_5.out
crystal executable in /Users/brunocamino/crystal
input data in /Users/brunocamino/Desktop/Imperial/cmsg_icl/ml-surface-adsorption/data/Cu_O_100_5.d12
temporary directory /Users/brunocamino/crystal/tmp
external geometry input from /Users/brunocamino/Desktop/Imperial/cmsg_icl/ml-surface-adsorption/data/Cu_O_100_5.gui
external geometry input saved in /Users/brunocamino/Desktop/Imperial/cmsg_icl/ml-surface-adsorption/data/Cu_O_100_5_inp.gui
Adsorption tests
EXTERNAL
EXTPRT
BASISSET
STO-3G
DFT
B3LYP
XXLGRID
ENDDFT
TOLINTEG
5 5 5 5 10
SHRINK
6 12
MAXCYCLE
20
FMIXING
70
DIIS
ENDSCF

         
 *******************************************************************************
 *                                                                             *
 *                               CRYSTAL17                                     *
 *                      public : 1.0.2 - March 1st, 2018                       *
 *                       HTTP://WWW.CRYSTAL.UNITO.IT                           *
 *                                                                             *
 *                              MAIN AUTHORS                                   *
 *                                                                             *
 *  R. DOVESI(1,11), V.R. SAUNDERS(2), C. ROETTI(1,11), R. ORLANDO(1,11),      *
 *  C.M. ZICOVICH-WILSON(1,3), F. PASCALE(4), B. CIVALLERI(1,11),              *
 *  K. DOLL(5), N.M. HARRISON(2,6), I.J. BUSH(7), Ph. D'ARCO(8),               *
 *  M. LLUNELL(9), M. CAUSA'(10), Y. NOEL(8), L. MASCHIO(1,11), A. ERBA(1,11)  *
 *  M. RE'RAT(14), S. CASASSA(1,11)                                            *
 *                                                                             *
 *        CONTRIBUTIONS TO THE CODE HAVE ALSO BEEN GIVEN BY                    *
 *                                                                             *
 *  M. FERRABONE(1,11), M. DE LA PIERRE(1,11), M. FERRERO(1,11),               *
 *  J. BAIMA(1,11), E. ALBANESE(1,11), M.F. PEINTINGER(12), R. BAST(13),       *
 *  B. KIRTMAN(15), V. LACIVITA(1,11), R. DEMICHELIS(1,16)                     *
 *  G. BRANDEBURG(17), S. SALUSTRO(1,11), G. SANSONE(1,11)                     *
 *  M.T. RUGGIERO(18)                                                          *
 *                                                                             *
 * (1) THEORETICAL CHEMISTRY GROUP - UNIVERSITA' DI TORINO - TORINO (ITALY)    *
 * (2) COMPUTATIONAL SCIENCE & ENGINEERING DEPARTMENT - STFC DARESBURY (UK)    *
 * (3) UNIVERSIDAD AUTONOMA DEL ESTADO DE MORELOS - CUERNAVACA (MEXICO)        *
 * (4) UNIVERSITE' DE LORRAINE - NANCY (FRANCE)                                *
 * (5) UNIVERSITAET STUTTGART- STUTTGART (GERMANY)                             *
 * (6) IMPERIAL COLLEGE - LONDON (UK)                                          *
 * (7) OXFORD E-RESEARCH CENTRE - OXFORD (UK)                                  *
 * (8) UPMC - SORBONNE UNIVERSITES - PARIS (FRANCE)                            *
 * (9) UNIVERSIDAD DE BARCELONA - BARCELONA (SPAIN)                            *
 *(10) UNIVERSITA' DI NAPOLI "FEDERICO II" - NAPOLI (ITALY)                    *
 *(11) NIS - NANOSTRUCTURED INTERFACES AND SURFACES - TORINO (ITALY)           *
 *(12) MPI FUER CHEMISCHE ENERGIEKONVERSION - MUELHEIM AN DER RUHR (GERMANY)   *
 *(13) UNIVERSITY OF TROMSO - TROMSO (NORWAY)                                  *
 *(14) UNIVERSITE' DE PAU ET DES PAYS DE L'ADOUR - PAU (FRANCE)                *
 *(15) UNIVERSITY OF CALIFORNIA SANTA BARBARA - SANTA BARBARA (USA)            *
 *(16) CURTIN UNIVERSITY - PERTH (AUSTRALIA)                                   *
 *(17) UNIVERSITY COLLEGE LONDON - LONDON (UK)                                 *
 *(18) CAMBRIDGE UNIVERSITY - CAMBRIDGE (UK)                                   *
 *                                                                             *
 *******************************************************************************
 EEEEEEEEEE STARTING  DATE 15 02 2022 TIME 08:45:50.6
 Adsorption tests                                                                

 GEOMETRY INPUT FROM EXTERNAL FILE (FORTRAN UNIT 34)
 2D - SLAB    

 *******************************************************************************
 LATTICE PARAMETERS  (ANGSTROMS AND DEGREES) - PRIMITIVE CELL
       A          B          C        ALPHA      BETA     GAMMA        VOLUME
    2.56062    3.62126  500.00000    90.00000  90.00000  90.00000      9.272672
 INFORMATION **** CHKGRP **** SPGR WITH NO INVERSION

 NUMBER OF IRREDUCIBLE ATOMS IN THE CELL:    4

 CARTESIAN COORDINATES (ANGSTROM) - IRREDUCIBLE ATOMS AND SYMMETRY RELATED

 AT.IRR.  AT  AT.N.          X                   Y                   Z
     1     1    29    1.920460000000E+00  0.000000000000E+00  1.920460000000E+00
     1     2    29    6.401589166532E-01  0.000000000000E+00  1.920460000000E+00
     3     3    29    6.401500000000E-01  1.810630000000E+00  6.401500000000E-01
     3     4    29   -6.401500000000E-01 -1.810630000000E+00  6.401500000000E-01
     5     5     8    1.920460000000E+00  1.810630000000E+00 -1.359850000000E+00
     5     6     8    6.401589166532E-01 -1.810630000000E+00 -1.359850000000E+00
     7     7     8    6.401500000000E-01  0.000000000000E+00  3.920460000000E+00
     7     8     8   -6.401500000000E-01  0.000000000000E+00  3.920460000000E+00

 SYMMETRY CHANGED DURING OLD RUN :  INFORMATION ON SPACE GROUP LOST 
 NUMBER OF SYMMETRY OPERATORS         :    4
 *******************************************************************************
 LATTICE PARAMETERS (ANGSTROMS AND DEGREES) - BOHR = 0.5291772083 ANGSTROM
 PRIMITIVE CELL
         A              B              C           ALPHA      BETA       GAMMA 
     2.56061892     3.62126200   500.00000000    90.000000  90.000000  90.000000
 *******************************************************************************
 ATOMS IN THE ASYMMETRIC UNIT    4 - ATOMS IN THE UNIT CELL:    8
     ATOM                 X/A                 Y/B             Z(ANGSTROM)
 *******************************************************************************
      1 T  29 CU   -2.500016353429E-01  0.000000000000E+00  1.920460000000E+00
      2 F  29 CU    2.500016353429E-01  0.000000000000E+00  1.920460000000E+00
      3 T  29 CU    2.499981531171E-01  4.999997238532E-01  6.401500000000E-01
      4 F  29 CU   -2.499981531171E-01 -4.999997238532E-01  6.401500000000E-01
      5 T   8 O    -2.500016353429E-01  4.999997238532E-01 -1.359850000000E+00
      6 F   8 O     2.500016353429E-01 -4.999997238532E-01 -1.359850000000E+00
      7 T   8 O     2.499981531171E-01  0.000000000000E+00  3.920460000000E+00
      8 F   8 O    -2.499981531171E-01  0.000000000000E+00  3.920460000000E+00

 T = ATOM BELONGING TO THE ASYMMETRIC UNIT
 *******************************************************************************
 * GEOMETRY EDITING - INPUT COORDINATES ARE GIVEN IN ANGSTROM         
 *******************************************************************************

 GEOMETRY NOW FULLY CONSISTENT WITH THE GROUP

 GCALCO - MAX INDICES DIRECT LATTICE VECTOR    98    69     0
 NO.OF VECTORS CREATED 6999 STARS 1080 RMAX   271.49459 BOHR

 GEOMETRY FOR WAVE FUNCTION - DIMENSIONALITY OF THE SYSTEM    2
 (NON PERIODIC DIRECTION: LATTICE PARAMETER FORMALLY SET TO 500)
 *******************************************************************************
 LATTICE PARAMETERS (ANGSTROMS AND DEGREES) - BOHR = 0.5291772083 ANGSTROM
 PRIMITIVE CELL
         A              B              C           ALPHA      BETA       GAMMA 
     2.56061892     3.62126200   500.00000000    90.000000  90.000000  90.000000
 *******************************************************************************
 ATOMS IN THE ASYMMETRIC UNIT    4 - ATOMS IN THE UNIT CELL:    8
     ATOM                 X/A                 Y/B             Z(ANGSTROM)
 *******************************************************************************
      1 T  29 CU   -2.500016353429E-01  0.000000000000E+00  1.920460000000E+00
      2 F  29 CU    2.500016353429E-01  0.000000000000E+00  1.920460000000E+00
      3 T  29 CU    2.499981531171E-01 -5.000000000000E-01  6.401500000000E-01
      4 F  29 CU   -2.499981531171E-01 -5.000000000000E-01  6.401500000000E-01
      5 T   8 O    -2.500016353429E-01 -5.000000000000E-01 -1.359850000000E+00
      6 F   8 O     2.500016353429E-01 -5.000000000000E-01 -1.359850000000E+00
      7 T   8 O     2.499981531171E-01  0.000000000000E+00  3.920460000000E+00
      8 F   8 O    -2.499981531171E-01  0.000000000000E+00  3.920460000000E+00

 T = ATOM BELONGING TO THE ASYMMETRIC UNIT

 ****    4 SYMMOPS - TRANSLATORS IN FRACTIONAL UNITS
 **** MATRICES AND TRANSLATORS IN THE CRYSTALLOGRAPHIC REFERENCE FRAME
   V INV                    ROTATION MATRICES                   TRANSLATORS
   1   1  1.00  0.00  0.00  0.00  1.00  0.00  0.00  0.00  1.00  0.00  0.00  0.00
   2   2 -1.00  0.00  0.00  0.00 -1.00  0.00  0.00  0.00  1.00  0.00  0.00  0.00
   3   3 -1.00  0.00  0.00  0.00  1.00  0.00  0.00  0.00  1.00  0.00  0.00  0.00
   4   4  1.00 -0.00  0.00  0.00 -1.00  0.00  0.00  0.00  1.00  0.00  0.00  0.00

 DIRECT LATTICE VECTORS CARTESIAN COMPONENTS (ANGSTROM)
          X                    Y                    Z
   0.256061891665E+01   0.000000000000E+00   0.000000000000E+00
  -0.221738345859E-15   0.362126200000E+01   0.000000000000E+00
   0.000000000000E+00   0.000000000000E+00   0.500000000000E+03


 CARTESIAN COORDINATES - PRIMITIVE CELL
 *******************************************************************************
 *      ATOM          X(ANGSTROM)         Y(ANGSTROM)         Z(ANGSTROM)
 *******************************************************************************
    1    29 CU    1.920460000000E+00  0.000000000000E+00  1.920460000000E+00
    2    29 CU    6.401589166532E-01  0.000000000000E+00  1.920460000000E+00
    3    29 CU    6.401500000000E-01  1.810631000000E+00  6.401500000000E-01
    4    29 CU   -6.401500000000E-01  1.810631000000E+00  6.401500000000E-01
    5     8 O     1.920460000000E+00  1.810631000000E+00 -1.359850000000E+00
    6     8 O     6.401589166532E-01  1.810631000000E+00 -1.359850000000E+00
    7     8 O     6.401500000000E-01  0.000000000000E+00  3.920460000000E+00
    8     8 O    -6.401500000000E-01  0.000000000000E+00  3.920460000000E+00

 *******************************************************************************
 STARTING BASIS SET HANDLING 
 *******************************************************************************

 Loading internal basis set: STO-3G              

 Please cite in your publication:
 H - Ne: W.J. Hehre, R.F. Stewart and J.A. Pople, J. Chem. Phys. 2657 (1969).   
                                                                                
                                                                                
                    
 Na - Ar: W.J. Hehre, R. Ditchfield, R.F. Stewart, J.A. Pople, J. Chem. Phys.  2
 769 (1970).                                                                    
                                                                                
                    
 K,Ca: W.J. Pietro, B.A. Levy, W.J. Hehre and R.F. Stewart, Inorg. Chem., 1980, 
 19 (8), pp 2225-2229                                                           
                                                                                
                    
 Ga-Kr: J. Am. Chem. Soc. 19, 2225 (1980).                                      
                                                                                
                                                                                
                    
 Sc-Zn, Y-Cd: W.J. Pietro and W.J. Hehre, J. Comp. Chem. 4, 241 (1983).         
                                                                                
                                                                                
                    

 *******************************************************************************
 LOCAL ATOMIC FUNCTIONS BASIS SET
 *******************************************************************************
   ATOM   X(AU)   Y(AU)   Z(AU)  N. TYPE  EXPONENT  S COEF   P COEF   D/F/G COEF
 *******************************************************************************
   1 CU   3.629   0.000   3.629
                                  1 S  
                                         1.802E+03 1.543E-01 0.000E+00 0.000E+00
                                         3.282E+02 5.353E-01 0.000E+00 0.000E+00
                                         8.882E+01 4.446E-01 0.000E+00 0.000E+00
                                  2 S  
                                         1.441E+02-9.997E-02 0.000E+00 0.000E+00
                                         3.349E+01 3.995E-01 0.000E+00 0.000E+00
                                         1.089E+01 7.001E-01 0.000E+00 0.000E+00
                                  3 S  
                                         1.131E+01-2.278E-01 0.000E+00 0.000E+00
                                         3.449E+00 2.175E-01 0.000E+00 0.000E+00
                                         1.331E+00 9.167E-01 0.000E+00 0.000E+00
                                  4 S  
                                         6.309E-01-3.088E-01 0.000E+00 0.000E+00
                                         2.329E-01 1.961E-02 0.000E+00 0.000E+00
                                         1.028E-01 1.131E+00 0.000E+00 0.000E+00
                           5-     7 P  
                                         1.441E+02 0.000E+00 1.559E-01 0.000E+00
                                         3.349E+01 0.000E+00 6.077E-01 0.000E+00
                                         1.089E+01 0.000E+00 3.920E-01 0.000E+00
                           8-    10 P  
                                         1.131E+01 0.000E+00 4.952E-03 0.000E+00
                                         3.449E+00 0.000E+00 5.778E-01 0.000E+00
                                         1.331E+00 0.000E+00 4.846E-01 0.000E+00
                          11-    13 P  
                                         6.309E-01 0.000E+00-1.215E-01 0.000E+00
                                         2.329E-01 0.000E+00 5.715E-01 0.000E+00
                                         1.028E-01 0.000E+00 5.499E-01 0.000E+00
                          14-    18 D  
                                         9.648E+00 0.000E+00 0.000E+00 2.198E-01
                                         2.943E+00 0.000E+00 0.000E+00 6.555E-01
                                         1.135E+00 0.000E+00 0.000E+00 2.866E-01
   2 CU   1.210   0.000   3.629
   3 CU   1.210   3.422   1.210
   4 CU  -1.210   3.422   1.210
   5 O    3.629   3.422  -2.570
                                 73 S  
                                         1.307E+02 1.543E-01 0.000E+00 0.000E+00
                                         2.381E+01 5.353E-01 0.000E+00 0.000E+00
                                         6.444E+00 4.446E-01 0.000E+00 0.000E+00
                                 74 S  
                                         5.033E+00-9.997E-02 0.000E+00 0.000E+00
                                         1.170E+00 3.995E-01 0.000E+00 0.000E+00
                                         3.804E-01 7.001E-01 0.000E+00 0.000E+00
                          75-    77 P  
                                         5.033E+00 0.000E+00 1.559E-01 0.000E+00
                                         1.170E+00 0.000E+00 6.077E-01 0.000E+00
                                         3.804E-01 0.000E+00 3.920E-01 0.000E+00
   6 O    1.210   3.422  -2.570
   7 O    1.210   0.000   7.409
   8 O   -1.210   0.000   7.409

 *******************************************************************************
 FINISHED BASIS SET HANDLING 
 *******************************************************************************

 INFORMATION **** SET_MPP **** PCRYSTAL CALCULATION
 INFORMATION **** READM2 **** NEW DEFAULT: FOCK/KS MATRIX MIXING SET TO 30 %
 INFORMATION **** READM2 **** NEW DEFAULT: FULL DIRECT SCF MODE
 INFORMATION **** READM2 **** NEW DEFAULT: COULOMB BIPOLAR BUFFER SET TO 32 Mb
 INFORMATION **** READM2 **** NEW DEFAULT: EXCHANGE BIPOLAR BUFFER SET TO 32 Mb

 *******************************************************************************
 NEW DEFAULT: DFT INTEGRATION GRID INCREASED TO XLGRID
 NEW DEFAULT: DIIS ACCELERATOR ACTIVE
 USE KEYWORD NODIIS TO TURN IT OFF
 *******************************************************************************

 INFORMATION **** TOLINTEG **** COULOMB AND EXCHANGE SERIES TOLERANCES MODIFIED
 INFORMATION **** MAXCYCLE **** MAX NUMBER OF SCF CYCLES SET TO          20
 INFORMATION **** DIIS **** DIIS FOR SCF ACTIVE
 INFORMATION **** DIIS **** LEVEL SHIFTER DISABLED
 *******************************************************************************
 N. OF ATOMS PER CELL         8  COULOMB OVERLAP TOL         (T1) 10**   -5
 NUMBER OF SHELLS            44  COULOMB PENETRATION TOL     (T2) 10**   -5
 NUMBER OF AO                92  EXCHANGE OVERLAP TOL        (T3) 10**   -5
 N. OF ELECTRONS PER CELL   148  EXCHANGE PSEUDO OVP (F(G))  (T4) 10**   -5
 CORE ELECTRONS PER CELL     80  EXCHANGE PSEUDO OVP (P(G))  (T5) 10**  -10
 N. OF SYMMETRY OPERATORS     4  POLE ORDER IN MONO ZONE                  4
 *******************************************************************************
 TYPE OF CALCULATION :  RESTRICTED CLOSED SHELL
 KOHN-SHAM HAMILTONIAN

 (EXCHANGE)[CORRELATION] FUNCTIONAL:(BECKE 88)[LEE-YANG-PARR]

 NON-LOCAL WEIGHTING FACTOR (EXCHANGE) =           0.9000
 NON-LOCAL WEIGHTING FACTOR [CORRELATION] =        0.8100

 HYBRID EXCHANGE - PERCENTAGE OF FOCK EXCHANGE    20.0000

 CAPPA:IS1  6;IS2  6;IS3  1; K PTS MONK NET  16; SYMMOPS:K SPACE   8;G SPACE   4

 *******************************************************************************
 MAX NUMBER OF SCF CYCLES      20  CONVERGENCE ON DELTAP        10**-16
 WEIGHT OF F(I) IN F(I+1)      70% CONVERGENCE ON ENERGY        10**- 6
 SHRINK. FACT.(MONKH.)    6  6  1  NUMBER OF K POINTS IN THE IBZ     16
 SHRINKING FACTOR(GILAT NET)   12  NUMBER OF K POINTS(GILAT NET)     49
 *******************************************************************************
 *** K POINTS COORDINATES (OBLIQUE COORDINATES IN UNITS OF IS =  6)
   1-R(  0  0  0)   2-C(  1  0  0)   3-C(  2  0  0)   4-R(  3  0  0)
   5-C(  0  1  0)   6-C(  1  1  0)   7-C(  2  1  0)   8-C(  3  1  0)
   9-C(  0  2  0)  10-C(  1  2  0)  11-C(  2  2  0)  12-C(  3  2  0)
  13-R(  0  3  0)  14-C(  1  3  0)  15-C(  2  3  0)  16-R(  3  3  0)

 DIRECT LATTICE VECTORS COMPON. (A.U.)     RECIP. LATTICE VECTORS COMPON. (A.U.) 
        X            Y            Z              X            Y            Z
    4.8388685    0.0000000    0.0000000      1.2984823    0.0000000    0.0000000
   -0.0000000    6.8431934    0.0000000      0.0000000    0.9181657    0.0000000
    0.0000000    0.0000000  944.8630670      0.0000000    0.0000000    0.0066498

 DISK SPACE FOR EIGENVECTORS (FTN 10)      236992 REALS

 SYMMETRY ADAPTION OF THE BLOCH FUNCTIONS ENABLED
 TTTTTTTTTTTTTTTTTTTTTTTTTTTTTT gordsh1     TELAPSE        0.01 TCPU        0.01

 MATRIX SIZE: P(G)   79100, F(G)   16856, P(G) IRR   12663, F(G) IRR    5983
 MAX G-VECTOR INDEX FOR 1- AND 2-ELECTRON INTEGRALS  65

 TTTTTTTTTTTTTTTTTTTTTTTTTTTTTT INPUT       TELAPSE        0.01 TCPU        0.01

 NEIGHBORS OF THE NON-EQUIVALENT ATOMS

 N = NUMBER OF NEIGHBORS AT DISTANCE R
    ATOM  N     R/ANG      R/AU   NEIGHBORS (ATOM LABELS AND CELL INDICES)
   1 CU   1     1.2803     2.4194    2 CU   0 0 0
   1 CU   1     1.2803     2.4195    2 CU   1 0 0
   1 CU   1     2.0000     3.7795    8 O    1 0 0
   1 CU   2     2.2176     4.1906    4 CU   1-1 0    4 CU   1 0 0
   1 CU   1     2.3747     4.4875    7 O    1 0 0
   1 CU   1     2.3747     4.4875    7 O    0 0 0

   3 CU   1     1.2803     2.4194    4 CU   0 0 0
   3 CU   1     1.2803     2.4195    4 CU   1 0 0
   3 CU   1     2.0000     3.7795    6 O    0 0 0
   3 CU   2     2.2176     4.1906    2 CU   0 0 0    2 CU   0 1 0
   3 CU   1     2.3747     4.4875    5 O   -1 0 0
   3 CU   1     2.3747     4.4875    5 O    0 0 0

   5 O    1     1.2803     2.4194    6 O    0 0 0
   5 O    1     1.2803     2.4195    6 O    1 0 0
   5 O    1     2.0000     3.7795    4 CU   1 0 0
   5 O    1     2.3747     4.4875    3 CU   1 0 0
   5 O    1     2.3747     4.4875    3 CU   0 0 0
   5 O    2     2.5606     4.8389    5 O   -1 0 0    5 O    1 0 0

   7 O    1     1.2803     2.4194    8 O    0 0 0
   7 O    1     1.2803     2.4195    8 O    1 0 0
   7 O    1     2.0000     3.7795    2 CU   0 0 0
   7 O    1     2.3747     4.4875    1 CU  -1 0 0
   7 O    1     2.3747     4.4875    1 CU   0 0 0
   7 O    2     2.5606     4.8389    7 O   -1 0 0    7 O    1 0 0


 SYMMETRY ALLOWED INTERNAL DEGREE(S) OF FREEDOM:   7
 TTTTTTTTTTTTTTTTTTTTTTTTTTTTTT SYMM        TELAPSE        0.01 TCPU        0.01
 TTTTTTTTTTTTTTTTTTTTTTTTTTTTTT INT_SCREEN  TELAPSE        0.01 TCPU        0.01
 INFORMATION **** EXCBUF **** EXCH. BIPO BUFFER: WORDS USED =      354618

 DFT PARAMETERS

     ATOM       ELECTRONS   NET CHARGE   R(ANGSTROM)
   1  29  CU     29.0000      0.0000     1.28000000
   5   8  O       8.0000      0.0000     0.74000000

 SIZE OF GRID=      99276
 TTTTTTTTTTTTTTTTTTTTTTTTTTTTTT MAKE_GRID2  TELAPSE        1.86 TCPU        1.86
 BECKE WEIGHT FUNCTION
 RADSAFE =     2.00
 TOLERANCES - DENSITY:10**- 6; POTENTIAL:10**- 9; GRID WGT:10**-14

 RADIAL INTEGRATION  - INTERVALS (POINTS,UPPER LIMIT):            1( 99,  4.0*R)

 ANGULAR INTEGRATION - INTERVALS (ACCURACY LEVEL [N. POINTS] UPPER LIMIT):
  1(  6[ 146]   0.2)  2( 11[ 302]   0.5)  3( 14[ 590]   0.9)  4( 18[1454]   3.5)
  5( 14[ 590]9999.0)
 TTTTTTTTTTTTTTTTTTTTTTTTTTTTTT INT_CALC    TELAPSE        1.86 TCPU        1.86
 EEEEEEEEEE INT_CALC TERMINATION  DATE 15 02 2022 TIME 08:45:52.5

 *******************************************************************************
 Adsorption tests                                                                
 CRYSTAL - SCF - TYPE OF CALCULATION :  RESTRICTED CLOSED SHELL
 *******************************************************************************

 CAPPA:IS1  6;IS2  6;IS3  1; K PTS MONK NET  16; SYMMOPS:K SPACE   8;G SPACE   4

 TTTTTTTTTTTTTTTTTTTTTTTTTTTTTT SDIK        TELAPSE        1.88 TCPU        1.88

 AAAAAAAAAAAAAAAAAAAAAAAAAAAAAAAAAAAAAAAAAAAAAAAAAAAAAAAAAAAAAAAAAAAAAAAAAAAAAAA
         ATOMIC WAVEFUNCTION(S)


 NUCLEAR CHARGE 29.0  SYMMETRY SPECIES            S    P    D
 N. ELECTRONS   29.0  NUMBER OF PRIMITIVE GTOS   12    9    3
                      NUMBER OF CONTRACTED GTOS   4    3    1
                      NUMBER OF CLOSED SHELLS     4    2    0
                      OPEN SHELL OCCUPATION       0    0    9

  ZNUC SCFIT  TOTAL HF ENERGY   KINETIC ENERGY   VIRIAL THEOREM ACCURACY
  29.0   5   -1.619844227E+03  1.626147454E+03 -1.996123828E+00  5.2E-07

 NUCLEAR CHARGE  8.0  SYMMETRY SPECIES            S    P
 N. ELECTRONS    8.0  NUMBER OF PRIMITIVE GTOS    6    3
                      NUMBER OF CONTRACTED GTOS   2    1
                      NUMBER OF CLOSED SHELLS     2    0
                      OPEN SHELL OCCUPATION       0    4

  ZNUC SCFIT  TOTAL HF ENERGY   KINETIC ENERGY   VIRIAL THEOREM ACCURACY
   8.0   1   -7.380415023E+01  7.344495887E+01 -2.004890620E+00  0.0E+00

 AAAAAAAAAAAAAAAAAAAAAAAAAAAAAAAAAAAAAAAAAAAAAAAAAAAAAAAAAAAAAAAAAAAAAAAAAAAAAAA

 CHARGE NORMALIZATION FACTOR   1.00000000
 TOTAL ATOMIC CHARGES:
  29.0000000  29.0000000  29.0000000  29.0000000   8.0000000   8.0000000
   8.0000000   8.0000000
 TTTTTTTTTTTTTTTTTTTTTTTTTTTTTT MOQGAD      TELAPSE        1.91 TCPU        1.91
 TTTTTTTTTTTTTTTTTTTTTTTTTTTTTT SHELLXN     TELAPSE       68.15 TCPU       68.05
 TTTTTTTTTTTTTTTTTTTTTTTTTTTTTT MONMO3      TELAPSE       68.32 TCPU       68.22
 NUMERICALLY INTEGRATED DENSITY    148.0000308900
 TTTTTTTTTTTTTTTTTTTTTTTTTTTTTT NUMDFT      TELAPSE       70.24 TCPU       70.14
 CYC   0 ETOT(AU) -6.786970518552E+03 DETOT -6.79E+03 tst  0.00E+00 PX  1.00E+00
 TTTTTTTTTTTTTTTTTTTTTTTTTTTTTT DIIS        TELAPSE       70.25 TCPU       70.15
 TTTTTTTTTTTTTTTTTTTTTTTTTTTTTT FDIK        TELAPSE       70.29 TCPU       70.19
 POSSIBLY CONDUCTING STATE - EFERMI(AU)  5.4752269E-01 (RES. CHARGE  3.27E-13;IT. 10)
 TTTTTTTTTTTTTTTTTTTTTTTTTTTTTT PDIG        TELAPSE       70.31 TCPU       70.21
 CHARGE NORMALIZATION FACTOR   1.00000000
 TOTAL ATOMIC CHARGES:
  27.6311213  27.6311213  27.6311217  27.6311217   9.3688785   9.3688785
   9.3688785   9.3688785
 TTTTTTTTTTTTTTTTTTTTTTTTTTTTTT MOQGAD      TELAPSE       70.33 TCPU       70.24
 TTTTTTTTTTTTTTTTTTTTTTTTTTTTTT SHELLXN     TELAPSE      138.01 TCPU      137.86
 TTTTTTTTTTTTTTTTTTTTTTTTTTTTTT MONMO3      TELAPSE      138.19 TCPU      138.03
 NUMERICALLY INTEGRATED DENSITY    147.9990787864
 TTTTTTTTTTTTTTTTTTTTTTTTTTTTTT NUMDFT      TELAPSE      143.26 TCPU      143.11
 CYC   1 ETOT(AU) -6.418057703610E+03 DETOT  3.69E+02 tst  0.00E+00 PX  1.00E+00
 TTTTTTTTTTTTTTTTTTTTTTTTTTTTTT DIIS        TELAPSE      143.27 TCPU      143.11
 DIIS TEST: 0.30247E+02 AT SCF   CYCLE   1 - MIX   70 %
 TTTTTTTTTTTTTTTTTTTTTTTTTTTTTT FDIK        TELAPSE      143.29 TCPU      143.13
 POSSIBLY CONDUCTING STATE - EFERMI(AU) -6.1530561E-01 (RES. CHARGE  8.53E-14;IT. 10)
 TTTTTTTTTTTTTTTTTTTTTTTTTTTTTT PDIG        TELAPSE      143.30 TCPU      143.15
 CHARGE NORMALIZATION FACTOR   1.00000000
 TOTAL ATOMIC CHARGES:
  33.0800546  33.0800546  33.0781437  33.0781437   3.9203158   3.9203158
   3.9214860   3.9214860
 TTTTTTTTTTTTTTTTTTTTTTTTTTTTTT MOQGAD      TELAPSE      143.33 TCPU      143.17
 TTTTTTTTTTTTTTTTTTTTTTTTTTTTTT SHELLXN     TELAPSE      211.12 TCPU      210.92
 TTTTTTTTTTTTTTTTTTTTTTTTTTTTTT MONMO3      TELAPSE      211.30 TCPU      211.09
 NUMERICALLY INTEGRATED DENSITY    147.9975150623
 TTTTTTTTTTTTTTTTTTTTTTTTTTTTTT NUMDFT      TELAPSE      216.41 TCPU      216.20
 CYC   2 ETOT(AU) -6.266243524295E+03 DETOT  1.52E+02 tst  1.14E+02 PX  2.14E+02
 TTTTTTTTTTTTTTTTTTTTTTTTTTTTTT DIIS        TELAPSE      216.41 TCPU      216.21
 DIIS TEST: 0.29024E+02 AT SCF   CYCLE   2 - DIIS ACTIVE - HISTORY:     2 CYCLES
 TTTTTTTTTTTTTTTTTTTTTTTTTTTTTT FDIK        TELAPSE      216.43 TCPU      216.23
 POSSIBLY CONDUCTING STATE - EFERMI(AU)  2.4351932E+00 (RES. CHARGE  1.42E-10;IT. 10)
 TTTTTTTTTTTTTTTTTTTTTTTTTTTTTT PDIG        TELAPSE      216.45 TCPU      216.24
 CHARGE NORMALIZATION FACTOR   1.00000000
 TOTAL ATOMIC CHARGES:
  26.9766290  26.9766290  26.9970555  26.9970555  10.0130943  10.0130943
  10.0132212  10.0132212
 TTTTTTTTTTTTTTTTTTTTTTTTTTTTTT MOQGAD      TELAPSE      216.47 TCPU      216.27
 TTTTTTTTTTTTTTTTTTTTTTTTTTTTTT SHELLXN     TELAPSE      284.48 TCPU      284.18
 TTTTTTTTTTTTTTTTTTTTTTTTTTTTTT MONMO3      TELAPSE      284.65 TCPU      284.35
 NUMERICALLY INTEGRATED DENSITY    147.9990356386
 TTTTTTTTTTTTTTTTTTTTTTTTTTTTTT NUMDFT      TELAPSE      289.75 TCPU      289.45
 CYC   3 ETOT(AU) -6.551953395910E+03 DETOT -2.86E+02 tst  1.51E+02 PX  1.66E+02
 TTTTTTTTTTTTTTTTTTTTTTTTTTTTTT DIIS        TELAPSE      289.76 TCPU      289.45
 DIIS TEST: 0.11429E+02 AT SCF   CYCLE   3 - DIIS ACTIVE - HISTORY:     3 CYCLES
 TTTTTTTTTTTTTTTTTTTTTTTTTTTTTT FDIK        TELAPSE      289.78 TCPU      289.47
 POSSIBLY CONDUCTING STATE - EFERMI(AU) -7.2940779E-01 (RES. CHARGE  0.00E+00;IT. 10)
 TTTTTTTTTTTTTTTTTTTTTTTTTTTTTT PDIG        TELAPSE      289.79 TCPU      289.48
 CHARGE NORMALIZATION FACTOR   1.00000000
 TOTAL ATOMIC CHARGES:
  33.4880339  33.4880339  33.4839738  33.4839738   3.5056430   3.5056430
   3.5223494   3.5223494
 TTTTTTTTTTTTTTTTTTTTTTTTTTTTTT MOQGAD      TELAPSE      289.82 TCPU      289.51
 TTTTTTTTTTTTTTTTTTTTTTTTTTTTTT SHELLXN     TELAPSE      357.88 TCPU      357.46
 TTTTTTTTTTTTTTTTTTTTTTTTTTTTTT MONMO3      TELAPSE      358.06 TCPU      357.64
 NUMERICALLY INTEGRATED DENSITY    147.9994477109
 TTTTTTTTTTTTTTTTTTTTTTTTTTTTTT NUMDFT      TELAPSE      363.20 TCPU      362.78
 CYC   4 ETOT(AU) -6.507216334753E+03 DETOT  4.47E+01 tst  4.08E+02 PX  1.96E+02
 TTTTTTTTTTTTTTTTTTTTTTTTTTTTTT DIIS        TELAPSE      363.21 TCPU      362.78
 DIIS TEST: 0.10391E+02 AT SCF   CYCLE   4 - DIIS ACTIVE - HISTORY:     4 CYCLES
 TTTTTTTTTTTTTTTTTTTTTTTTTTTTTT FDIK        TELAPSE      363.23 TCPU      362.80
 POSSIBLY CONDUCTING STATE - EFERMI(AU)  1.2921058E+00 (RES. CHARGE  2.27E-13;IT. 10)
 TTTTTTTTTTTTTTTTTTTTTTTTTTTTTT PDIG        TELAPSE      363.24 TCPU      362.82
 CHARGE NORMALIZATION FACTOR   1.00000000
 TOTAL ATOMIC CHARGES:
  27.0190698  27.0190698  26.9486212  26.9486212  10.0161977  10.0161977
  10.0161112  10.0161112
 TTTTTTTTTTTTTTTTTTTTTTTTTTTTTT MOQGAD      TELAPSE      363.27 TCPU      362.84
 TTTTTTTTTTTTTTTTTTTTTTTTTTTTTT SHELLXN     TELAPSE      431.44 TCPU      430.92
 TTTTTTTTTTTTTTTTTTTTTTTTTTTTTT MONMO3      TELAPSE      431.61 TCPU      431.09
 NUMERICALLY INTEGRATED DENSITY    147.9985974918
 TTTTTTTTTTTTTTTTTTTTTTTTTTTTTT NUMDFT      TELAPSE      436.71 TCPU      436.19
 CYC   5 ETOT(AU) -6.581258839638E+03 DETOT -7.40E+01 tst  1.69E+03 PX  1.33E+02
 TTTTTTTTTTTTTTTTTTTTTTTTTTTTTT DIIS        TELAPSE      436.71 TCPU      436.19
 DIIS TEST: 0.37141E+01 AT SCF   CYCLE   5 - DIIS ACTIVE - HISTORY:     5 CYCLES
 TTTTTTTTTTTTTTTTTTTTTTTTTTTTTT FDIK        TELAPSE      436.73 TCPU      436.21
 POSSIBLY CONDUCTING STATE - EFERMI(AU) -6.0808186E-01 (RES. CHARGE  3.10E-12;IT. 10)
 TTTTTTTTTTTTTTTTTTTTTTTTTTTTTT PDIG        TELAPSE      436.75 TCPU      436.23
 CHARGE NORMALIZATION FACTOR   1.00000000
 TOTAL ATOMIC CHARGES:
  33.2211836  33.2211836  33.2920654  33.2920654   3.8437903   3.8437903
   3.6429607   3.6429607
 TTTTTTTTTTTTTTTTTTTTTTTTTTTTTT MOQGAD      TELAPSE      436.77 TCPU      436.25
 TTTTTTTTTTTTTTTTTTTTTTTTTTTTTT SHELLXN     TELAPSE      504.40 TCPU      503.83
 TTTTTTTTTTTTTTTTTTTTTTTTTTTTTT MONMO3      TELAPSE      504.57 TCPU      504.00
 NUMERICALLY INTEGRATED DENSITY    147.9977138737
 TTTTTTTTTTTTTTTTTTTTTTTTTTTTTT NUMDFT      TELAPSE      509.65 TCPU      509.07
 CYC   6 ETOT(AU) -6.105555938135E+03 DETOT  4.76E+02 tst  2.01E+02 PX  1.49E+02
 TTTTTTTTTTTTTTTTTTTTTTTTTTTTTT DIIS        TELAPSE      509.65 TCPU      509.08
 DIIS TEST: 0.17850E+02 AT SCF   CYCLE   6 - DIIS ACTIVE - HISTORY:     6 CYCLES
 TTTTTTTTTTTTTTTTTTTTTTTTTTTTTT FDIK        TELAPSE      509.67 TCPU      509.09
 POSSIBLY CONDUCTING STATE - EFERMI(AU) -6.1749227E-01 (RES. CHARGE  2.84E-14;IT. 10)
 TTTTTTTTTTTTTTTTTTTTTTTTTTTTTT PDIG        TELAPSE      509.69 TCPU      509.11
 CHARGE NORMALIZATION FACTOR   1.00000000
 TOTAL ATOMIC CHARGES:
  33.2622364  33.2622364  33.2976322  33.2976322   3.6946162   3.6946162
   3.7455152   3.7455152
 TTTTTTTTTTTTTTTTTTTTTTTTTTTTTT MOQGAD      TELAPSE      509.71 TCPU      509.13
 TTTTTTTTTTTTTTTTTTTTTTTTTTTTTT SHELLXN     TELAPSE      577.35 TCPU      576.56
 TTTTTTTTTTTTTTTTTTTTTTTTTTTTTT MONMO3      TELAPSE      577.52 TCPU      576.72
 NUMERICALLY INTEGRATED DENSITY    147.9984941616
 TTTTTTTTTTTTTTTTTTTTTTTTTTTTTT NUMDFT      TELAPSE      582.61 TCPU      581.81
 CYC   7 ETOT(AU) -6.463489416241E+03 DETOT -3.58E+02 tst  5.49E+02 PX  9.30E+01
 TTTTTTTTTTTTTTTTTTTTTTTTTTTTTT DIIS        TELAPSE      582.62 TCPU      581.81
 DIIS TEST: 0.11847E+02 AT SCF   CYCLE   7 - DIIS ACTIVE - HISTORY:     7 CYCLES
 TTTTTTTTTTTTTTTTTTTTTTTTTTTTTT FDIK        TELAPSE      582.63 TCPU      581.83
 POSSIBLY CONDUCTING STATE - EFERMI(AU) -6.2862782E-01 (RES. CHARGE  9.52E-13;IT. 10)
 TTTTTTTTTTTTTTTTTTTTTTTTTTTTTT PDIG        TELAPSE      582.65 TCPU      581.85
 CHARGE NORMALIZATION FACTOR   1.00000000
 TOTAL ATOMIC CHARGES:
  33.2713244  33.2713244  33.3338213  33.3338213   3.7683612   3.7683612
   3.6264930   3.6264930
 TTTTTTTTTTTTTTTTTTTTTTTTTTTTTT MOQGAD      TELAPSE      582.67 TCPU      581.87
 TTTTTTTTTTTTTTTTTTTTTTTTTTTTTT SHELLXN     TELAPSE      650.11 TCPU      649.28
 TTTTTTTTTTTTTTTTTTTTTTTTTTTTTT MONMO3      TELAPSE      650.28 TCPU      649.45
 NUMERICALLY INTEGRATED DENSITY    147.9988550303
 TTTTTTTTTTTTTTTTTTTTTTTTTTTTTT NUMDFT      TELAPSE      655.35 TCPU      654.52
 CYC   8 ETOT(AU) -6.721993281871E+03 DETOT -2.59E+02 tst  7.82E+01 PX  8.02E+01
 TTTTTTTTTTTTTTTTTTTTTTTTTTTTTT DIIS        TELAPSE      655.35 TCPU      654.52
 DIIS TEST: 0.18733E+02 AT SCF   CYCLE   8 - DIIS ACTIVE - HISTORY:     8 CYCLES
 TTTTTTTTTTTTTTTTTTTTTTTTTTTTTT FDIK        TELAPSE      655.37 TCPU      654.54
 POSSIBLY CONDUCTING STATE - EFERMI(AU) -6.2815136E-01 (RES. CHARGE  4.69E-13;IT.  8)
 TTTTTTTTTTTTTTTTTTTTTTTTTTTTTT PDIG        TELAPSE      655.39 TCPU      654.56
 CHARGE NORMALIZATION FACTOR   1.00000000
 TOTAL ATOMIC CHARGES:
  33.2619470  33.2619470  33.3351553  33.3351553   3.7741201   3.7741201
   3.6287776   3.6287776
 TTTTTTTTTTTTTTTTTTTTTTTTTTTTTT MOQGAD      TELAPSE      655.41 TCPU      654.58
 TTTTTTTTTTTTTTTTTTTTTTTTTTTTTT SHELLXN     TELAPSE      722.96 TCPU      722.10
 TTTTTTTTTTTTTTTTTTTTTTTTTTTTTT MONMO3      TELAPSE      723.13 TCPU      722.27
 NUMERICALLY INTEGRATED DENSITY    147.9988447284
 TTTTTTTTTTTTTTTTTTTTTTTTTTTTTT NUMDFT      TELAPSE      728.20 TCPU      727.34
 CYC   9 ETOT(AU) -6.721913215463E+03 DETOT  8.01E-02 tst  1.10E-02 PX  2.64E-01
 TTTTTTTTTTTTTTTTTTTTTTTTTTTTTT DIIS        TELAPSE      728.21 TCPU      727.35
 DIIS TEST: 0.18828E+02 AT SCF   CYCLE   9 - DIIS ACTIVE - HISTORY:     9 CYCLES
 TTTTTTTTTTTTTTTTTTTTTTTTTTTTTT FDIK        TELAPSE      728.23 TCPU      727.36
 POSSIBLY CONDUCTING STATE - EFERMI(AU) -6.2700378E-01 (RES. CHARGE  8.26E-12;IT. 10)
 TTTTTTTTTTTTTTTTTTTTTTTTTTTTTT PDIG        TELAPSE      728.24 TCPU      727.38
 CHARGE NORMALIZATION FACTOR   1.00000000
 TOTAL ATOMIC CHARGES:
  33.2582885  33.2582885  33.3328826  33.3328826   3.7787716   3.7787716
   3.6300573   3.6300573
 TTTTTTTTTTTTTTTTTTTTTTTTTTTTTT MOQGAD      TELAPSE      728.27 TCPU      727.40
 TTTTTTTTTTTTTTTTTTTTTTTTTTTTTT SHELLXN     TELAPSE      795.99 TCPU      795.01
 TTTTTTTTTTTTTTTTTTTTTTTTTTTTTT MONMO3      TELAPSE      796.16 TCPU      795.18
 NUMERICALLY INTEGRATED DENSITY    147.9988439076
 TTTTTTTTTTTTTTTTTTTTTTTTTTTTTT NUMDFT      TELAPSE      801.27 TCPU      800.29
 CYC  10 ETOT(AU) -6.722339256040E+03 DETOT -4.26E-01 tst  7.85E-04 PX  9.56E-02
 TTTTTTTTTTTTTTTTTTTTTTTTTTTTTT DIIS        TELAPSE      801.28 TCPU      800.29
 DIIS TEST: 0.18871E+02 AT SCF   CYCLE  10 - DIIS ACTIVE - HISTORY:    10 CYCLES
 TTTTTTTTTTTTTTTTTTTTTTTTTTTTTT FDIK        TELAPSE      801.29 TCPU      800.31
 POSSIBLY CONDUCTING STATE - EFERMI(AU) -6.4899414E-01 (RES. CHARGE  8.13E-12;IT. 12)
 TTTTTTTTTTTTTTTTTTTTTTTTTTTTTT PDIG        TELAPSE      801.31 TCPU      800.33
 CHARGE NORMALIZATION FACTOR   1.00000000
 TOTAL ATOMIC CHARGES:
  33.3503110  33.3503110  33.3735177  33.3735177   3.5925869   3.5925869
   3.6835844   3.6835844
 TTTTTTTTTTTTTTTTTTTTTTTTTTTTTT MOQGAD      TELAPSE      801.33 TCPU      800.35
 TTTTTTTTTTTTTTTTTTTTTTTTTTTTTT SHELLXN     TELAPSE      868.92 TCPU      867.89
 TTTTTTTTTTTTTTTTTTTTTTTTTTTTTT MONMO3      TELAPSE      869.09 TCPU      868.06
 NUMERICALLY INTEGRATED DENSITY    147.9987115031
 TTTTTTTTTTTTTTTTTTTTTTTTTTTTTT NUMDFT      TELAPSE      874.18 TCPU      873.15
 CYC  11 ETOT(AU) -6.412175367046E+03 DETOT  3.10E+02 tst  8.60E-02 PX  5.17E+01
 TTTTTTTTTTTTTTTTTTTTTTTTTTTTTT DIIS        TELAPSE      874.19 TCPU      873.15
 DIIS TEST: 0.37712E+02 AT SCF   CYCLE  11 - DIIS ACTIVE - HISTORY:    11 CYCLES
 TTTTTTTTTTTTTTTTTTTTTTTTTTTTTT FDIK        TELAPSE      874.20 TCPU      873.17
 POSSIBLY CONDUCTING STATE - EFERMI(AU) -6.4583735E-01 (RES. CHARGE  5.68E-14;IT. 10)
 TTTTTTTTTTTTTTTTTTTTTTTTTTTTTT PDIG        TELAPSE      874.22 TCPU      873.19
 CHARGE NORMALIZATION FACTOR   1.00000000
 TOTAL ATOMIC CHARGES:
  33.3612636  33.3612636  33.3553056  33.3553056   3.5192052   3.5192052
   3.7642256   3.7642256
 TTTTTTTTTTTTTTTTTTTTTTTTTTTTTT MOQGAD      TELAPSE      874.24 TCPU      873.21
 TTTTTTTTTTTTTTTTTTTTTTTTTTTTTT SHELLXN     TELAPSE      941.78 TCPU      940.72
 TTTTTTTTTTTTTTTTTTTTTTTTTTTTTT MONMO3      TELAPSE      941.95 TCPU      940.89
 NUMERICALLY INTEGRATED DENSITY    147.9989379385
 TTTTTTTTTTTTTTTTTTTTTTTTTTTTTT NUMDFT      TELAPSE      947.02 TCPU      945.95
 CYC  12 ETOT(AU) -6.730465244739E+03 DETOT -3.18E+02 tst  2.25E-01 PX  5.24E+01
 TTTTTTTTTTTTTTTTTTTTTTTTTTTTTT DIIS        TELAPSE      947.02 TCPU      945.96
 DIIS TEST: 0.18471E+02 AT SCF   CYCLE  12 - DIIS ACTIVE - HISTORY:    12 CYCLES
 TTTTTTTTTTTTTTTTTTTTTTTTTTTTTT FDIK        TELAPSE      947.04 TCPU      945.97
 POSSIBLY CONDUCTING STATE - EFERMI(AU) -6.3985076E-01 (RES. CHARGE  7.67E-13;IT. 12)
 TTTTTTTTTTTTTTTTTTTTTTTTTTTTTT PDIG        TELAPSE      947.06 TCPU      945.99
 CHARGE NORMALIZATION FACTOR   1.00000000
 TOTAL ATOMIC CHARGES:
  33.4126808  33.4126808  33.3163480  33.3163480   3.2690615   3.2690615
   4.0019097   4.0019097
 TTTTTTTTTTTTTTTTTTTTTTTTTTTTTT MOQGAD      TELAPSE      947.08 TCPU      946.02
 TTTTTTTTTTTTTTTTTTTTTTTTTTTTTT SHELLXN     TELAPSE     1014.58 TCPU     1013.49
 TTTTTTTTTTTTTTTTTTTTTTTTTTTTTT MONMO3      TELAPSE     1014.75 TCPU     1013.66
 NUMERICALLY INTEGRATED DENSITY    147.9987168387
 TTTTTTTTTTTTTTTTTTTTTTTTTTTTTT NUMDFT      TELAPSE     1019.83 TCPU     1018.75
 CYC  13 ETOT(AU) -6.412528579334E+03 DETOT  3.18E+02 tst  2.94E-01 PX  5.21E+01
 TTTTTTTTTTTTTTTTTTTTTTTTTTTTTT DIIS        TELAPSE     1019.84 TCPU     1018.75
 DIIS TEST: 0.38055E+02 AT SCF   CYCLE  13 - DIIS ACTIVE - HISTORY:    13 CYCLES
 TTTTTTTTTTTTTTTTTTTTTTTTTTTTTT FDIK        TELAPSE     1019.86 TCPU     1018.77
 POSSIBLY CONDUCTING STATE - EFERMI(AU) -6.4008021E-01 (RES. CHARGE  0.00E+00;IT. 10)
 TTTTTTTTTTTTTTTTTTTTTTTTTTTTTT PDIG        TELAPSE     1019.88 TCPU     1018.78
 CHARGE NORMALIZATION FACTOR   1.00000000
 TOTAL ATOMIC CHARGES:
  33.4046936  33.4046936  33.3211335  33.3211335   3.2984999   3.2984999
   3.9756730   3.9756730
 TTTTTTTTTTTTTTTTTTTTTTTTTTTTTT MOQGAD      TELAPSE     1019.90 TCPU     1018.81
 TTTTTTTTTTTTTTTTTTTTTTTTTTTTTT SHELLXN     TELAPSE     1087.39 TCPU     1086.28
 TTTTTTTTTTTTTTTTTTTTTTTTTTTTTT MONMO3      TELAPSE     1087.56 TCPU     1086.45
 NUMERICALLY INTEGRATED DENSITY    147.9987149059
 TTTTTTTTTTTTTTTTTTTTTTTTTTTTTT NUMDFT      TELAPSE     1092.63 TCPU     1091.52
 CYC  14 ETOT(AU) -6.410607940479E+03 DETOT  1.92E+00 tst  5.70E-03 PX  2.11E-01
 TTTTTTTTTTTTTTTTTTTTTTTTTTTTTT DIIS        TELAPSE     1092.64 TCPU     1091.53
 DIIS TEST: 0.38555E+02 AT SCF   CYCLE  14 - DIIS ACTIVE - HISTORY:    14 CYCLES
 TTTTTTTTTTTTTTTTTTTTTTTTTTTTTT FDIK        TELAPSE     1092.65 TCPU     1091.55
 POSSIBLY CONDUCTING STATE - EFERMI(AU) -6.6413819E-01 (RES. CHARGE  4.12E-13;IT. 12)
 TTTTTTTTTTTTTTTTTTTTTTTTTTTTTT PDIG        TELAPSE     1092.67 TCPU     1091.56
 CHARGE NORMALIZATION FACTOR   1.00000000
 TOTAL ATOMIC CHARGES:
  33.4659917  33.4659917  33.3663423  33.3663423   3.2376161   3.2376161
   3.9300499   3.9300499
 TTTTTTTTTTTTTTTTTTTTTTTTTTTTTT MOQGAD      TELAPSE     1092.70 TCPU     1091.59
 TTTTTTTTTTTTTTTTTTTTTTTTTTTTTT SHELLXN     TELAPSE     1160.17 TCPU     1159.05
 TTTTTTTTTTTTTTTTTTTTTTTTTTTTTT MONMO3      TELAPSE     1160.34 TCPU     1159.22
 NUMERICALLY INTEGRATED DENSITY    147.9977857485
 TTTTTTTTTTTTTTTTTTTTTTTTTTTTTT NUMDFT      TELAPSE     1165.40 TCPU     1164.28
 CYC  15 ETOT(AU) -6.135023586060E+03 DETOT  2.76E+02 tst  1.37E+00 PX  4.13E+01
 TTTTTTTTTTTTTTTTTTTTTTTTTTTTTT DIIS        TELAPSE     1165.41 TCPU     1164.28
 DIIS TEST: 0.31368E+02 AT SCF   CYCLE  15 - DIIS ACTIVE - HISTORY:    15 CYCLES
 TTTTTTTTTTTTTTTTTTTTTTTTTTTTTT FDIK        TELAPSE     1165.42 TCPU     1164.30
 POSSIBLY CONDUCTING STATE - EFERMI(AU) -6.6357231E-01 (RES. CHARGE  3.98E-12;IT.  8)
 TTTTTTTTTTTTTTTTTTTTTTTTTTTTTT PDIG        TELAPSE     1165.44 TCPU     1164.32
 CHARGE NORMALIZATION FACTOR   1.00000000
 TOTAL ATOMIC CHARGES:
  33.4655502  33.4655502  33.3654614  33.3654614   3.2393067   3.2393067
   3.9296817   3.9296817
 TTTTTTTTTTTTTTTTTTTTTTTTTTTTTT MOQGAD      TELAPSE     1165.47 TCPU     1164.34
 TTTTTTTTTTTTTTTTTTTTTTTTTTTTTT SHELLXN     TELAPSE     1233.06 TCPU     1231.90
 TTTTTTTTTTTTTTTTTTTTTTTTTTTTTT MONMO3      TELAPSE     1233.23 TCPU     1232.07
 NUMERICALLY INTEGRATED DENSITY    147.9977872550
 TTTTTTTTTTTTTTTTTTTTTTTTTTTTTT NUMDFT      TELAPSE     1238.30 TCPU     1237.13
 CYC  16 ETOT(AU) -6.133706020383E+03 DETOT  1.32E+00 tst  8.39E-03 PX  3.70E-01
 TTTTTTTTTTTTTTTTTTTTTTTTTTTTTT DIIS        TELAPSE     1238.31 TCPU     1237.14
 DIIS TEST: 0.31150E+02 AT SCF   CYCLE  16 - DIIS ACTIVE - HISTORY:    16 CYCLES
 TTTTTTTTTTTTTTTTTTTTTTTTTTTTTT FDIK        TELAPSE     1238.33 TCPU     1237.16
 POSSIBLY CONDUCTING STATE - EFERMI(AU) -6.6362032E-01 (RES. CHARGE  2.82E-11;IT. 12)
 TTTTTTTTTTTTTTTTTTTTTTTTTTTTTT PDIG        TELAPSE     1238.34 TCPU     1237.17
 CHARGE NORMALIZATION FACTOR   1.00000000
 TOTAL ATOMIC CHARGES:
  33.4652316  33.4652316  33.3654075  33.3654075   3.2402679   3.2402679
   3.9290931   3.9290931
 TTTTTTTTTTTTTTTTTTTTTTTTTTTTTT MOQGAD      TELAPSE     1238.37 TCPU     1237.20
 TTTTTTTTTTTTTTTTTTTTTTTTTTTTTT SHELLXN     TELAPSE     1305.84 TCPU     1304.66
 TTTTTTTTTTTTTTTTTTTTTTTTTTTTTT MONMO3      TELAPSE     1306.01 TCPU     1304.82
 NUMERICALLY INTEGRATED DENSITY    147.9977884653
 TTTTTTTTTTTTTTTTTTTTTTTTTTTTTT NUMDFT      TELAPSE     1311.09 TCPU     1309.91
 CYC  17 ETOT(AU) -6.134161279163E+03 DETOT -4.55E-01 tst  2.36E-04 PX  5.11E-02
 TTTTTTTTTTTTTTTTTTTTTTTTTTTTTT DIIS        TELAPSE     1311.10 TCPU     1309.91
 DIIS TEST: 0.31236E+02 AT SCF   CYCLE  17 - DIIS ACTIVE - HISTORY:    17 CYCLES
 TTTTTTTTTTTTTTTTTTTTTTTTTTTTTT FDIK        TELAPSE     1311.11 TCPU     1309.93
 POSSIBLY CONDUCTING STATE - EFERMI(AU) -6.7195438E-01 (RES. CHARGE  1.04E-12;IT.  8)
 TTTTTTTTTTTTTTTTTTTTTTTTTTTTTT PDIG        TELAPSE     1311.13 TCPU     1309.94
 CHARGE NORMALIZATION FACTOR   1.00000000
 TOTAL ATOMIC CHARGES:
  33.4968584  33.4968584  33.3925146  33.3925146   3.1761754   3.1761754
   3.9344516   3.9344516
 TTTTTTTTTTTTTTTTTTTTTTTTTTTTTT MOQGAD      TELAPSE     1311.16 TCPU     1309.97
 TTTTTTTTTTTTTTTTTTTTTTTTTTTTTT SHELLXN     TELAPSE     1378.60 TCPU     1377.38
 TTTTTTTTTTTTTTTTTTTTTTTTTTTTTT MONMO3      TELAPSE     1378.77 TCPU     1377.55
 NUMERICALLY INTEGRATED DENSITY    147.9987196027
 TTTTTTTTTTTTTTTTTTTTTTTTTTTTTT NUMDFT      TELAPSE     1383.87 TCPU     1382.64
 CYC  18 ETOT(AU) -6.391202180307E+03 DETOT -2.57E+02 tst  1.44E-01 PX  4.12E+01
 TTTTTTTTTTTTTTTTTTTTTTTTTTTTTT DIIS        TELAPSE     1383.87 TCPU     1382.65
 DIIS TEST: 0.36708E+02 AT SCF   CYCLE  18 - DIIS ACTIVE - HISTORY:    18 CYCLES
 TTTTTTTTTTTTTTTTTTTTTTTTTTTTTT FDIK        TELAPSE     1383.89 TCPU     1382.67
 POSSIBLY CONDUCTING STATE - EFERMI(AU) -6.8581533E-01 (RES. CHARGE  1.07E-12;IT. 12)
 TTTTTTTTTTTTTTTTTTTTTTTTTTTTTT PDIG        TELAPSE     1383.91 TCPU     1382.68
 CHARGE NORMALIZATION FACTOR   1.00000000
 TOTAL ATOMIC CHARGES:
  33.3925400  33.3925400  33.4495589  33.4495589   3.6313927   3.6313927
   3.5265083   3.5265083
 TTTTTTTTTTTTTTTTTTTTTTTTTTTTTT MOQGAD      TELAPSE     1383.93 TCPU     1382.71
 TTTTTTTTTTTTTTTTTTTTTTTTTTTTTT SHELLXN     TELAPSE     1451.43 TCPU     1450.18
 TTTTTTTTTTTTTTTTTTTTTTTTTTTTTT MONMO3      TELAPSE     1451.60 TCPU     1450.35
 NUMERICALLY INTEGRATED DENSITY    147.9978109973
 TTTTTTTTTTTTTTTTTTTTTTTTTTTTTT NUMDFT      TELAPSE     1456.66 TCPU     1455.40
 CYC  19 ETOT(AU) -6.110163352019E+03 DETOT  2.81E+02 tst  3.61E+00 PX  4.18E+01
 TTTTTTTTTTTTTTTTTTTTTTTTTTTTTT DIIS        TELAPSE     1456.67 TCPU     1455.41
 DIIS TEST: 0.20383E+02 AT SCF   CYCLE  19 - DIIS ACTIVE - HISTORY:    19 CYCLES
 TTTTTTTTTTTTTTTTTTTTTTTTTTTTTT FDIK        TELAPSE     1456.69 TCPU     1455.43
 POSSIBLY CONDUCTING STATE - EFERMI(AU) -7.0782848E-01 (RES. CHARGE  2.84E-14;IT.  8)
 TTTTTTTTTTTTTTTTTTTTTTTTTTTTTT PDIG        TELAPSE     1456.70 TCPU     1455.44
 CHARGE NORMALIZATION FACTOR   1.00000000
 TOTAL ATOMIC CHARGES:
  33.4828918  33.4828918  33.5170086  33.5170086   3.5228285   3.5228285
   3.4772710   3.4772710
 TTTTTTTTTTTTTTTTTTTTTTTTTTTTTT MOQGAD      TELAPSE     1456.73 TCPU     1455.47
 TTTTTTTTTTTTTTTTTTTTTTTTTTTTTT SHELLXN     TELAPSE     1524.25 TCPU     1522.95

 ::: DIPOLE MOMENT ALONG NON PERIODIC DIRECTIONS:
 ::: A.U.     (Z) -5.66052E-01
 ::: DEBYE         1.43876E+00

 +++ ENERGIES IN A.U. +++
 ::: EXT EL-POLE                                  -1.7858402565085E+04
 ::: EXT EL-SPHEROPOLE                             0.0000000000000E+00
 ::: BIELET ZONE E-E                               1.5685547088015E+04
 ::: TOTAL E-E                                    -2.1728554770702E+03
 ::: TOTAL E-N + N-E                              -3.5718008359947E+03
 ::: TOTAL N-N                                    -7.0322674814094E+03
 ::: KINETIC ENERGY                                6.8713327129329E+03
 ::: PSEUDO TOTAL   ENERGY                        -5.9055910815414E+03
 ::: VIRIAL COEFFICIENT                            1.0755848314450E+00
 TTTTTTTTTTTTTTTTTTTTTTTTTTTTTT MONMO3      TELAPSE     1524.43 TCPU     1523.12
 NUMERICALLY INTEGRATED DENSITY    147.9977982558
 TTTTTTTTTTTTTTTTTTTTTTTTTTTTTT NUMDFT      TELAPSE     1529.62 TCPU     1528.26
 CYC  20 ETOT(AU) -6.156086564544E+03 DETOT -4.59E+01 tst  1.90E+00 PX  4.18E+01

 == SCF ENDED - TOO MANY CYCLES            E(AU) -6.1560865645444E+03 CYCLES  20


 ENERGY EXPRESSION=HARTREE+FOCK EXCH*0.20000+(BECKE      EXCH)*0.80000+LYP        CORR


 TOTAL ENERGY(DFT)(AU)( 20) -6.1560865645444E+03 DE-4.6E+01 tester 1.9E+00
 TTTTTTTTTTTTTTTTTTTTTTTTTTTTTT EDFT        TELAPSE     1529.62 TCPU     1528.26
 EIGENVECTORS IN FORTRAN UNIT  8
 TTTTTTTTTTTTTTTTTTTTTTTTTTTTTT END         TELAPSE     1529.65 TCPU     1528.28
 EEEEEEEEEE TERMINATION  DATE 15 02 2022 TIME 09:11:20.3
Tue 15 Feb 2022 09:11:20 GMT
Contents of temporary directory:
total 14792
-rw-r--r--  1 brunocamino  admin   957440 15 Feb 09:10 diis_Fg
-rw-r--r--  1 brunocamino  admin   374976 15 Feb 09:08 diis_Fia1
-rw-r--r--  1 brunocamino  admin   395808 15 Feb 09:10 diis_Fia2
-rw-r--r--  1 brunocamino  admin        0 15 Feb 08:45 diis_Sk
-rw-r--r--  1 brunocamino  admin  1190112 15 Feb 09:08 fort.10
-rw-r--r--  1 brunocamino  admin    47872 15 Feb 09:10 fort.11
-rw-r--r--  1 brunocamino  admin     1723 15 Feb 08:45 fort.34
-rw-r--r--  1 brunocamino  admin    66880 15 Feb 08:45 fort.61
-rw-r--r--  1 brunocamino  admin    42752 15 Feb 08:45 fort.62
-rw-r--r--  1 brunocamino  admin  1190112 15 Feb 09:10 fort.8
-rw-r--r--  1 brunocamino  admin   302308 15 Feb 09:11 fort.9
-rw-r--r--  1 brunocamino  admin   111728 15 Feb 09:08 fort.95
-rw-r--r--  1 brunocamino  admin   782903 15 Feb 09:11 fort.98
wave function binary file /Users/brunocamino/Desktop/Imperial/cmsg_icl/ml-surface-adsorption/data/Cu_O_100_5.f9
file fort.98 saved as /Users/brunocamino/Desktop/Imperial/cmsg_icl/ml-surface-adsorption/data/Cu_O_100_5.f98
geometry input file fort.34 saved as /Users/brunocamino/Desktop/Imperial/cmsg_icl/ml-surface-adsorption/data/Cu_O_100_5.gui
temporary directory /Users/brunocamino/crystal/tmp removed
