date Tue 15 Feb 2022 18:43:36 GMT
hostname MacBook-Pro-3.local
system Darwin MacBook-Pro-3.local 21.3.0 Darwin Kernel Version 21.3.0: Wed Jan 5 21:37:58 PST 2022; root:xnu-8019.80.24~20/RELEASE_ARM64_T8101 arm64
user brunocamino
output data in /Users/brunocamino/Desktop/Imperial/cmsg_icl/ml-surface-adsorption/data/Cu_O_100_8_BSSE_ads.out
crystal executable in /Users/brunocamino/crystal
input data in /Users/brunocamino/Desktop/Imperial/cmsg_icl/ml-surface-adsorption/data/Cu_O_100_8_BSSE_ads.d12
temporary directory /Users/brunocamino/crystal/tmp
external geometry input from /Users/brunocamino/Desktop/Imperial/cmsg_icl/ml-surface-adsorption/data/Cu_O_100_8_BSSE_ads.gui
external geometry input saved in /Users/brunocamino/Desktop/Imperial/cmsg_icl/ml-surface-adsorption/data/Cu_O_100_8_BSSE_ads_inp.gui
Adsorption tests
EXTERNAL
EXTPRT
BASISSET
STO-3G
GHOSTS
2
1 2
DFT
B3LYP
XXLGRID
ENDDFT
TOLINTEG
5 5 5 5 10
SHRINK
6 12
MAXCYCLE
20
ENDSCF

         
 *******************************************************************************
 *                                                                             *
 *                               CRYSTAL17                                     *
 *                      public : 1.0.2 - March 1st, 2018                       *
 *                       HTTP://WWW.CRYSTAL.UNITO.IT                           *
 *                                                                             *
 *                              MAIN AUTHORS                                   *
 *                                                                             *
 *  R. DOVESI(1,11), V.R. SAUNDERS(2), C. ROETTI(1,11), R. ORLANDO(1,11),      *
 *  C.M. ZICOVICH-WILSON(1,3), F. PASCALE(4), B. CIVALLERI(1,11),              *
 *  K. DOLL(5), N.M. HARRISON(2,6), I.J. BUSH(7), Ph. D'ARCO(8),               *
 *  M. LLUNELL(9), M. CAUSA'(10), Y. NOEL(8), L. MASCHIO(1,11), A. ERBA(1,11)  *
 *  M. RE'RAT(14), S. CASASSA(1,11)                                            *
 *                                                                             *
 *        CONTRIBUTIONS TO THE CODE HAVE ALSO BEEN GIVEN BY                    *
 *                                                                             *
 *  M. FERRABONE(1,11), M. DE LA PIERRE(1,11), M. FERRERO(1,11),               *
 *  J. BAIMA(1,11), E. ALBANESE(1,11), M.F. PEINTINGER(12), R. BAST(13),       *
 *  B. KIRTMAN(15), V. LACIVITA(1,11), R. DEMICHELIS(1,16)                     *
 *  G. BRANDEBURG(17), S. SALUSTRO(1,11), G. SANSONE(1,11)                     *
 *  M.T. RUGGIERO(18)                                                          *
 *                                                                             *
 * (1) THEORETICAL CHEMISTRY GROUP - UNIVERSITA' DI TORINO - TORINO (ITALY)    *
 * (2) COMPUTATIONAL SCIENCE & ENGINEERING DEPARTMENT - STFC DARESBURY (UK)    *
 * (3) UNIVERSIDAD AUTONOMA DEL ESTADO DE MORELOS - CUERNAVACA (MEXICO)        *
 * (4) UNIVERSITE' DE LORRAINE - NANCY (FRANCE)                                *
 * (5) UNIVERSITAET STUTTGART- STUTTGART (GERMANY)                             *
 * (6) IMPERIAL COLLEGE - LONDON (UK)                                          *
 * (7) OXFORD E-RESEARCH CENTRE - OXFORD (UK)                                  *
 * (8) UPMC - SORBONNE UNIVERSITES - PARIS (FRANCE)                            *
 * (9) UNIVERSIDAD DE BARCELONA - BARCELONA (SPAIN)                            *
 *(10) UNIVERSITA' DI NAPOLI "FEDERICO II" - NAPOLI (ITALY)                    *
 *(11) NIS - NANOSTRUCTURED INTERFACES AND SURFACES - TORINO (ITALY)           *
 *(12) MPI FUER CHEMISCHE ENERGIEKONVERSION - MUELHEIM AN DER RUHR (GERMANY)   *
 *(13) UNIVERSITY OF TROMSO - TROMSO (NORWAY)                                  *
 *(14) UNIVERSITE' DE PAU ET DES PAYS DE L'ADOUR - PAU (FRANCE)                *
 *(15) UNIVERSITY OF CALIFORNIA SANTA BARBARA - SANTA BARBARA (USA)            *
 *(16) CURTIN UNIVERSITY - PERTH (AUSTRALIA)                                   *
 *(17) UNIVERSITY COLLEGE LONDON - LONDON (UK)                                 *
 *(18) CAMBRIDGE UNIVERSITY - CAMBRIDGE (UK)                                   *
 *                                                                             *
 *******************************************************************************
 EEEEEEEEEE STARTING  DATE 15 02 2022 TIME 18:43:36.8
 Adsorption tests                                                                

 GEOMETRY INPUT FROM EXTERNAL FILE (FORTRAN UNIT 34)
 2D - SLAB    

 *******************************************************************************
 LATTICE PARAMETERS  (ANGSTROMS AND DEGREES) - PRIMITIVE CELL
       A          B          C        ALPHA      BETA     GAMMA        VOLUME
    2.56062    2.56062  500.00000    90.00000  90.00000  90.00000      6.556769
 INFORMATION **** CHKGRP **** SPGR WITH NO INVERSION

 NUMBER OF IRREDUCIBLE ATOMS IN THE CELL:    4

 CARTESIAN COORDINATES (ANGSTROM) - IRREDUCIBLE ATOMS AND SYMMETRY RELATED

 AT.IRR.  AT  AT.N.          X                   Y                   Z
     1     1    29    0.000000000000E+00  0.000000000000E+00  1.176910000000E+01
     1     2    29    0.000000000000E+00  0.000000000000E+00 -1.176910000000E+01
     3     3    29    1.280309458327E+00  1.280309458327E+00  1.357973000000E+01
     3     4    29    1.280309458327E+00  1.280309458327E+00 -1.357973000000E+01
     5     5     8    2.560618916653E+00  0.000000000000E+00  9.769100000000E+00
     5     6     8    0.000000000000E+00  0.000000000000E+00 -9.769100000000E+00
     7     7     8    1.280309458327E+00  1.280309458327E+00  1.557973000000E+01
     7     8     8    1.280309458327E+00  1.280309458327E+00 -1.557973000000E+01

 SYMMETRY CHANGED DURING OLD RUN :  INFORMATION ON SPACE GROUP LOST 
 NUMBER OF SYMMETRY OPERATORS         :    8
 *******************************************************************************
 LATTICE PARAMETERS (ANGSTROMS AND DEGREES) - BOHR = 0.5291772083 ANGSTROM
 PRIMITIVE CELL
         A              B              C           ALPHA      BETA       GAMMA 
     2.56061892     2.56061892   500.00000000    90.000000  90.000000  90.000000
 *******************************************************************************
 ATOMS IN THE ASYMMETRIC UNIT    4 - ATOMS IN THE UNIT CELL:    8
     ATOM                 X/A                 Y/B             Z(ANGSTROM)
 *******************************************************************************
      1 T  29 CU    0.000000000000E+00  0.000000000000E+00  1.176910000000E+01
      2 F  29 CU    0.000000000000E+00  0.000000000000E+00 -1.176910000000E+01
      3 T  29 CU   -4.999999999992E-01 -4.999999999992E-01  1.357973000000E+01
      4 F  29 CU   -4.999999999992E-01 -4.999999999992E-01 -1.357973000000E+01
      5 T   8 O     1.171507335584E-12  0.000000000000E+00  9.769100000000E+00
      6 F   8 O     0.000000000000E+00  0.000000000000E+00 -9.769100000000E+00
      7 T   8 O    -4.999999999992E-01 -4.999999999992E-01  1.557973000000E+01
      8 F   8 O    -4.999999999992E-01 -4.999999999992E-01 -1.557973000000E+01

 T = ATOM BELONGING TO THE ASYMMETRIC UNIT
 *******************************************************************************
 * GEOMETRY EDITING - INPUT COORDINATES ARE GIVEN IN ANGSTROM         
 *******************************************************************************

 GEOMETRY NOW FULLY CONSISTENT WITH THE GROUP

 GCALCO - MAX INDICES DIRECT LATTICE VECTOR    83    83     0
 NO.OF VECTORS CREATED 6999 STARS  686 RMAX   228.24897 BOHR

 GEOMETRY FOR WAVE FUNCTION - DIMENSIONALITY OF THE SYSTEM    2
 (NON PERIODIC DIRECTION: LATTICE PARAMETER FORMALLY SET TO 500)
 *******************************************************************************
 LATTICE PARAMETERS (ANGSTROMS AND DEGREES) - BOHR = 0.5291772083 ANGSTROM
 PRIMITIVE CELL
         A              B              C           ALPHA      BETA       GAMMA 
     2.56061892     2.56061892   500.00000000    90.000000  90.000000  90.000000
 *******************************************************************************
 ATOMS IN THE ASYMMETRIC UNIT    4 - ATOMS IN THE UNIT CELL:    8
     ATOM                 X/A                 Y/B             Z(ANGSTROM)
 *******************************************************************************
      1 T  29 CU    0.000000000000E+00  0.000000000000E+00  1.176910000000E+01
      2 F  29 CU    0.000000000000E+00  0.000000000000E+00 -1.176910000000E+01
      3 T  29 CU   -5.000000000000E-01 -5.000000000000E-01  1.357973000000E+01
      4 F  29 CU   -5.000000000000E-01 -5.000000000000E-01 -1.357973000000E+01
      5 T   8 O    -2.220446049250E-16  0.000000000000E+00  9.769100000000E+00
      6 F   8 O    -6.123233995753E-17  0.000000000000E+00 -9.769100000000E+00
      7 T   8 O    -5.000000000000E-01 -5.000000000000E-01  1.557973000000E+01
      8 F   8 O    -5.000000000000E-01 -5.000000000000E-01 -1.557973000000E+01

 T = ATOM BELONGING TO THE ASYMMETRIC UNIT

 ****    8 SYMMOPS - TRANSLATORS IN FRACTIONAL UNITS
 **** MATRICES AND TRANSLATORS IN THE CRYSTALLOGRAPHIC REFERENCE FRAME
   V INV                    ROTATION MATRICES                   TRANSLATORS
   1   1  1.00  0.00  0.00  0.00  1.00  0.00  0.00  0.00  1.00  0.00  0.00  0.00
   2   2 -1.00  0.00  0.00  0.00 -1.00  0.00  0.00  0.00  1.00  0.00  0.00  0.00
   3   3 -0.00 -1.00  0.00 -1.00  0.00  0.00  0.00  0.00 -1.00  0.00  0.00  0.00
   4   4  0.00  1.00  0.00  1.00 -0.00  0.00  0.00  0.00 -1.00  0.00  0.00  0.00
   5   6 -0.00  1.00  0.00 -1.00  0.00  0.00  0.00  0.00 -1.00  0.00  0.00  0.00
   6   5  0.00 -1.00  0.00  1.00 -0.00  0.00  0.00  0.00 -1.00  0.00  0.00  0.00
   7   7 -1.00  0.00  0.00  0.00  1.00  0.00  0.00  0.00  1.00  0.00  0.00  0.00
   8   8  1.00 -0.00  0.00  0.00 -1.00  0.00  0.00  0.00  1.00  0.00  0.00  0.00

 DIRECT LATTICE VECTORS CARTESIAN COMPONENTS (ANGSTROM)
          X                    Y                    Z
   0.256061891665E+01   0.000000000000E+00   0.000000000000E+00
  -0.156792688006E-15   0.256061891665E+01   0.000000000000E+00
   0.000000000000E+00   0.000000000000E+00   0.500000000000E+03


 CARTESIAN COORDINATES - PRIMITIVE CELL
 *******************************************************************************
 *      ATOM          X(ANGSTROM)         Y(ANGSTROM)         Z(ANGSTROM)
 *******************************************************************************
    1    29 CU    0.000000000000E+00  0.000000000000E+00  1.176910000000E+01
    2    29 CU    0.000000000000E+00  0.000000000000E+00 -1.176910000000E+01
    3    29 CU    1.280309458325E+00  1.280309458325E+00  1.357973000000E+01
    4    29 CU    1.280309458325E+00  1.280309458325E+00 -1.357973000000E+01
    5     8 O     2.560618916650E+00  0.000000000000E+00  9.769100000000E+00
    6     8 O    -1.567926880060E-16  0.000000000000E+00 -9.769100000000E+00
    7     8 O     1.280309458325E+00  1.280309458325E+00  1.557973000000E+01
    8     8 O     1.280309458325E+00  1.280309458325E+00 -1.557973000000E+01

 *******************************************************************************
 STARTING BASIS SET HANDLING 
 *******************************************************************************

 Loading internal basis set: STO-3G              

 Please cite in your publication:
 H - Ne: W.J. Hehre, R.F. Stewart and J.A. Pople, J. Chem. Phys. 2657 (1969).   
                                                                                
                                                                                
                    
 Na - Ar: W.J. Hehre, R. Ditchfield, R.F. Stewart, J.A. Pople, J. Chem. Phys.  2
 769 (1970).                                                                    
                                                                                
                    
 K,Ca: W.J. Pietro, B.A. Levy, W.J. Hehre and R.F. Stewart, Inorg. Chem., 1980, 
 19 (8), pp 2225-2229                                                           
                                                                                
                    
 Ga-Kr: J. Am. Chem. Soc. 19, 2225 (1980).                                      
                                                                                
                                                                                
                    
 Sc-Zn, Y-Cd: W.J. Pietro and W.J. Hehre, J. Comp. Chem. 4, 241 (1983).         
                                                                                
                                                                                
                    

 *******************************************************************************
 LOCAL ATOMIC FUNCTIONS BASIS SET
 *******************************************************************************
   ATOM   X(AU)   Y(AU)   Z(AU)  N. TYPE  EXPONENT  S COEF   P COEF   D/F/G COEF
 *******************************************************************************
   1 CU   0.000   0.000  22.240
                                  1 S  
                                         1.802E+03 1.543E-01 0.000E+00 0.000E+00
                                         3.282E+02 5.353E-01 0.000E+00 0.000E+00
                                         8.882E+01 4.446E-01 0.000E+00 0.000E+00
                                  2 S  
                                         1.441E+02-9.997E-02 0.000E+00 0.000E+00
                                         3.349E+01 3.995E-01 0.000E+00 0.000E+00
                                         1.089E+01 7.001E-01 0.000E+00 0.000E+00
                                  3 S  
                                         1.131E+01-2.278E-01 0.000E+00 0.000E+00
                                         3.449E+00 2.175E-01 0.000E+00 0.000E+00
                                         1.331E+00 9.167E-01 0.000E+00 0.000E+00
                                  4 S  
                                         6.309E-01-3.088E-01 0.000E+00 0.000E+00
                                         2.329E-01 1.961E-02 0.000E+00 0.000E+00
                                         1.028E-01 1.131E+00 0.000E+00 0.000E+00
                           5-     7 P  
                                         1.441E+02 0.000E+00 1.559E-01 0.000E+00
                                         3.349E+01 0.000E+00 6.077E-01 0.000E+00
                                         1.089E+01 0.000E+00 3.920E-01 0.000E+00
                           8-    10 P  
                                         1.131E+01 0.000E+00 4.952E-03 0.000E+00
                                         3.449E+00 0.000E+00 5.778E-01 0.000E+00
                                         1.331E+00 0.000E+00 4.846E-01 0.000E+00
                          11-    13 P  
                                         6.309E-01 0.000E+00-1.215E-01 0.000E+00
                                         2.329E-01 0.000E+00 5.715E-01 0.000E+00
                                         1.028E-01 0.000E+00 5.499E-01 0.000E+00
                          14-    18 D  
                                         9.648E+00 0.000E+00 0.000E+00 2.198E-01
                                         2.943E+00 0.000E+00 0.000E+00 6.555E-01
                                         1.135E+00 0.000E+00 0.000E+00 2.866E-01
   2 CU   0.000   0.000 -22.240
   3 CU   2.419   2.419  25.662
   4 CU   2.419   2.419 -25.662
   5 O    4.839   0.000  18.461
                                 73 S  
                                         1.307E+02 1.543E-01 0.000E+00 0.000E+00
                                         2.381E+01 5.353E-01 0.000E+00 0.000E+00
                                         6.444E+00 4.446E-01 0.000E+00 0.000E+00
                                 74 S  
                                         5.033E+00-9.997E-02 0.000E+00 0.000E+00
                                         1.170E+00 3.995E-01 0.000E+00 0.000E+00
                                         3.804E-01 7.001E-01 0.000E+00 0.000E+00
                          75-    77 P  
                                         5.033E+00 0.000E+00 1.559E-01 0.000E+00
                                         1.170E+00 0.000E+00 6.077E-01 0.000E+00
                                         3.804E-01 0.000E+00 3.920E-01 0.000E+00
   6 O   -0.000   0.000 -18.461
   7 O    2.419   2.419  29.441
   8 O    2.419   2.419 -29.441

 *******************************************************************************
 FINISHED BASIS SET HANDLING 
 *******************************************************************************

 INFORMATION **** SET_MPP **** PCRYSTAL CALCULATION
 INFORMATION **** READM2 **** NEW DEFAULT: FOCK/KS MATRIX MIXING SET TO 30 %
 INFORMATION **** READM2 **** NEW DEFAULT: FULL DIRECT SCF MODE
 INFORMATION **** READM2 **** NEW DEFAULT: COULOMB BIPOLAR BUFFER SET TO 32 Mb
 INFORMATION **** READM2 **** NEW DEFAULT: EXCHANGE BIPOLAR BUFFER SET TO 32 Mb

 *******************************************************************************
 * ATOMS TRANSFORMED INTO GHOSTS :   2
   1( 29)   2( 29)
 SYMMETRY MAY BE BROKEN

 *******************************************************************************
 NEW DEFAULT: DFT INTEGRATION GRID INCREASED TO XLGRID
 NEW DEFAULT: DIIS ACCELERATOR ACTIVE
 USE KEYWORD NODIIS TO TURN IT OFF
 *******************************************************************************

 INFORMATION **** TOLINTEG **** COULOMB AND EXCHANGE SERIES TOLERANCES MODIFIED
 INFORMATION **** MAXCYCLE **** MAX NUMBER OF SCF CYCLES SET TO          20

 GHOST ATOMS - REMOVAL OF NUCLEAR CHARGE AND ELECTRONS
 TOTAL NUCLEAR CHARGE        9.000000E+01
 TOTAL ELECTRONIC CHARGE     9.000000E+01
 *******************************************************************************
 N. OF ATOMS PER CELL         8  COULOMB OVERLAP TOL         (T1) 10**   -5
 NUMBER OF SHELLS            44  COULOMB PENETRATION TOL     (T2) 10**   -5
 NUMBER OF AO                92  EXCHANGE OVERLAP TOL        (T3) 10**   -5
 N. OF ELECTRONS PER CELL    90  EXCHANGE PSEUDO OVP (F(G))  (T4) 10**   -5
 CORE ELECTRONS PER CELL     44  EXCHANGE PSEUDO OVP (P(G))  (T5) 10**  -10
 N. OF SYMMETRY OPERATORS     8  POLE ORDER IN MONO ZONE                  4
 *******************************************************************************
 TYPE OF CALCULATION :  RESTRICTED CLOSED SHELL
 KOHN-SHAM HAMILTONIAN

 (EXCHANGE)[CORRELATION] FUNCTIONAL:(BECKE 88)[LEE-YANG-PARR]

 NON-LOCAL WEIGHTING FACTOR (EXCHANGE) =           0.9000
 NON-LOCAL WEIGHTING FACTOR [CORRELATION] =        0.8100

 HYBRID EXCHANGE - PERCENTAGE OF FOCK EXCHANGE    20.0000

 CAPPA:IS1  6;IS2  6;IS3  1; K PTS MONK NET  10; SYMMOPS:K SPACE  16;G SPACE   8

 *******************************************************************************
 MAX NUMBER OF SCF CYCLES      20  CONVERGENCE ON DELTAP        10**-16
 WEIGHT OF F(I) IN F(I+1)      30% CONVERGENCE ON ENERGY        10**- 6
 SHRINK. FACT.(MONKH.)    6  6  1  NUMBER OF K POINTS IN THE IBZ     10
 SHRINKING FACTOR(GILAT NET)   12  NUMBER OF K POINTS(GILAT NET)     28
 *******************************************************************************
 *** K POINTS COORDINATES (OBLIQUE COORDINATES IN UNITS OF IS =  6)
   1-R(  0  0  0)   2-C(  1  0  0)   3-C(  2  0  0)   4-R(  3  0  0)
   5-C(  1  1  0)   6-C(  2  1  0)   7-C(  3  1  0)   8-C(  2  2  0)
   9-C(  3  2  0)  10-R(  3  3  0)

 DIRECT LATTICE VECTORS COMPON. (A.U.)     RECIP. LATTICE VECTORS COMPON. (A.U.) 
        X            Y            Z              X            Y            Z
    4.8388685    0.0000000    0.0000000      1.2984823    0.0000000    0.0000000
   -0.0000000    4.8388685    0.0000000      0.0000000    1.2984823    0.0000000
    0.0000000    0.0000000  944.8630670      0.0000000    0.0000000    0.0066498

 DISK SPACE FOR EIGENVECTORS (FTN 10)      143888 REALS

 SYMMETRY ADAPTION OF THE BLOCH FUNCTIONS ENABLED
 TTTTTTTTTTTTTTTTTTTTTTTTTTTTTT gordsh1     TELAPSE        0.01 TCPU        0.01

 MATRIX SIZE: P(G)   54332, F(G)   11448, P(G) IRR    4887, F(G) IRR    2362
 MAX G-VECTOR INDEX FOR 1- AND 2-ELECTRON INTEGRALS  77

 TTTTTTTTTTTTTTTTTTTTTTTTTTTTTT INPUT       TELAPSE        0.01 TCPU        0.01

 NEIGHBORS OF THE NON-EQUIVALENT ATOMS

 N = NUMBER OF NEIGHBORS AT DISTANCE R
    ATOM  N     R/ANG      R/AU   NEIGHBORS (ATOM LABELS AND CELL INDICES)
   1 XX   1     2.0000     3.7795    5 O   -1 0 0
   1 XX   4     2.5606     4.8389    3 CU   0 0 0    3 CU  -1 0 0    3 CU   0-1 0
                                     3 CU  -1-1 0
   1 XX   4     2.5606     4.8389    1 XX  -1 0 0    1 XX   1 0 0    1 XX   0-1 0
                                     1 XX   0 1 0
   1 XX   4     3.2491     6.1399    5 O    0 0 0    5 O   -1-1 0    5 O   -1 1 0
                                     5 O   -2 0 0
   1 XX   4     3.6213     6.8432    1 XX  -1-1 0    1 XX   1 1 0    1 XX  -1 1 0
                                     1 XX   1-1 0
   1 XX   4     4.1369     7.8175    5 O    0 1 0    5 O    0-1 0    5 O   -2-1 0
                                     5 O   -2 1 0

   3 CU   1     2.0000     3.7795    7 O    0 0 0
   3 CU   4     2.5606     4.8389    1 XX   0 0 0    1 XX   1 0 0    1 XX   0 1 0
                                     1 XX   1 1 0
   3 CU   4     2.5606     4.8389    3 CU  -1 0 0    3 CU   1 0 0    3 CU   0-1 0
                                     3 CU   0 1 0
   3 CU   4     3.2491     6.1399    7 O    1 0 0    7 O   -1 0 0    7 O    0 1 0
                                     7 O    0-1 0
   3 CU   4     3.6213     6.8432    3 CU  -1-1 0    3 CU   1 1 0    3 CU  -1 1 0
                                     3 CU   1-1 0
   3 CU   4     4.1369     7.8175    7 O    1 1 0    7 O   -1-1 0    7 O    1-1 0
                                     7 O   -1 1 0

   5 O    1     2.0000     3.7795    1 XX   1 0 0
   5 O    4     2.5606     4.8389    5 O   -1 0 0    5 O    1 0 0    5 O    0-1 0
                                     5 O    0 1 0
   5 O    4     3.2491     6.1399    1 XX   0 0 0    1 XX   1 1 0    1 XX   1-1 0
                                     1 XX   2 0 0
   5 O    4     3.6213     6.8432    5 O   -1-1 0    5 O    1 1 0    5 O   -1 1 0
                                     5 O    1-1 0
   5 O    4     4.1369     7.8175    1 XX   0-1 0    1 XX   0 1 0    1 XX   2 1 0
                                     1 XX   2-1 0
   5 O    4     4.2189     7.9726    3 CU   0 0 0    3 CU   1 0 0    3 CU   0-1 0
                                     3 CU   1-1 0

   7 O    1     2.0000     3.7795    3 CU   0 0 0
   7 O    4     2.5606     4.8389    7 O   -1 0 0    7 O    1 0 0    7 O    0-1 0
                                     7 O    0 1 0
   7 O    4     3.2491     6.1399    3 CU  -1 0 0    3 CU   1 0 0    3 CU   0-1 0
                                     3 CU   0 1 0
   7 O    4     3.6213     6.8432    7 O   -1-1 0    7 O    1 1 0    7 O   -1 1 0
                                     7 O    1-1 0
   7 O    4     4.1369     7.8175    3 CU  -1-1 0    3 CU   1 1 0    3 CU  -1 1 0
                                     3 CU   1-1 0
   7 O    4     4.2189     7.9726    1 XX   0 0 0    1 XX   1 0 0    1 XX   0 1 0
                                     1 XX   1 1 0


 SYMMETRY ALLOWED INTERNAL DEGREE(S) OF FREEDOM:   4
 TTTTTTTTTTTTTTTTTTTTTTTTTTTTTT SYMM        TELAPSE        0.01 TCPU        0.01
 TTTTTTTTTTTTTTTTTTTTTTTTTTTTTT INT_SCREEN  TELAPSE        0.02 TCPU        0.01
 INFORMATION **** EXCBUF **** EXCH. BIPO BUFFER: WORDS USED =      138852

 DFT PARAMETERS

     ATOM       ELECTRONS   NET CHARGE   R(ANGSTROM)
   1   0  XX      0.0000      0.0000     0.50000000
   3  29  CU     29.0000      0.0000     1.28000000
   5   8  O       8.0000      0.0000     0.74000000

 SIZE OF GRID=      69409
 TTTTTTTTTTTTTTTTTTTTTTTTTTTTTT MAKE_GRID2  TELAPSE        0.46 TCPU        0.45
 BECKE WEIGHT FUNCTION
 RADSAFE =     2.00
 TOLERANCES - DENSITY:10**- 6; POTENTIAL:10**- 9; GRID WGT:10**-14

 RADIAL INTEGRATION  - INTERVALS (POINTS,UPPER LIMIT):            1( 99,  4.0*R)

 ANGULAR INTEGRATION - INTERVALS (ACCURACY LEVEL [N. POINTS] UPPER LIMIT):
  1(  6[ 146]   0.2)  2( 11[ 302]   0.5)  3( 14[ 590]   0.9)  4( 18[1454]   3.5)
  5( 14[ 590]9999.0)

 GHOST ATOMS - REMOVAL OF NUCLEAR CHARGE AND ELECTRONS
 TOTAL NUCLEAR CHARGE        9.000000E+01
 TOTAL ELECTRONIC CHARGE     9.000000E+01
 TTTTTTTTTTTTTTTTTTTTTTTTTTTTTT INT_CALC    TELAPSE        0.46 TCPU        0.46
 EEEEEEEEEE INT_CALC TERMINATION  DATE 15 02 2022 TIME 18:43:37.3

 *******************************************************************************
 Adsorption tests                                                                
 CRYSTAL - SCF - TYPE OF CALCULATION :  RESTRICTED CLOSED SHELL
 *******************************************************************************

 CAPPA:IS1  6;IS2  6;IS3  1; K PTS MONK NET  10; SYMMOPS:K SPACE  16;G SPACE   8

 TTTTTTTTTTTTTTTTTTTTTTTTTTTTTT SDIK        TELAPSE        0.64 TCPU        0.64

 AAAAAAAAAAAAAAAAAAAAAAAAAAAAAAAAAAAAAAAAAAAAAAAAAAAAAAAAAAAAAAAAAAAAAAAAAAAAAAA
         ATOMIC WAVEFUNCTION(S)


 NUCLEAR CHARGE 29.0  SYMMETRY SPECIES            S    P    D
 N. ELECTRONS   29.0  NUMBER OF PRIMITIVE GTOS   12    9    3
                      NUMBER OF CONTRACTED GTOS   4    3    1
                      NUMBER OF CLOSED SHELLS     4    2    0
                      OPEN SHELL OCCUPATION       0    0    9

  ZNUC SCFIT  TOTAL HF ENERGY   KINETIC ENERGY   VIRIAL THEOREM ACCURACY
  29.0   5   -1.619844227E+03  1.626147454E+03 -1.996123828E+00  5.2E-07

 NUCLEAR CHARGE  8.0  SYMMETRY SPECIES            S    P
 N. ELECTRONS    8.0  NUMBER OF PRIMITIVE GTOS    6    3
                      NUMBER OF CONTRACTED GTOS   2    1
                      NUMBER OF CLOSED SHELLS     2    0
                      OPEN SHELL OCCUPATION       0    4

  ZNUC SCFIT  TOTAL HF ENERGY   KINETIC ENERGY   VIRIAL THEOREM ACCURACY
   8.0   1   -7.380415023E+01  7.344495887E+01 -2.004890620E+00  0.0E+00

 AAAAAAAAAAAAAAAAAAAAAAAAAAAAAAAAAAAAAAAAAAAAAAAAAAAAAAAAAAAAAAAAAAAAAAAAAAAAAAA

 CHARGE NORMALIZATION FACTOR   1.00000000
 TOTAL ATOMIC CHARGES:
   0.0000000   0.0000000  29.0000000  29.0000000   8.0000000   8.0000000
   8.0000000   8.0000000
 TTTTTTTTTTTTTTTTTTTTTTTTTTTTTT MOQGAD      TELAPSE        0.67 TCPU        0.66
 TTTTTTTTTTTTTTTTTTTTTTTTTTTTTT SHELLXN     TELAPSE       11.67 TCPU       11.67
 TTTTTTTTTTTTTTTTTTTTTTTTTTTTTT MONMO3      TELAPSE       11.73 TCPU       11.73
 NUMERICALLY INTEGRATED DENSITY     90.0000073535
 TTTTTTTTTTTTTTTTTTTTTTTTTTTTTT NUMDFT      TELAPSE       12.46 TCPU       12.46
 CYC   0 ETOT(AU) -3.537495719263E+03 DETOT -3.54E+03 tst  0.00E+00 PX  1.00E+00
 TTTTTTTTTTTTTTTTTTTTTTTTTTTTTT DIIS        TELAPSE       12.47 TCPU       12.46
 TTTTTTTTTTTTTTTTTTTTTTTTTTTTTT FDIK        TELAPSE       12.48 TCPU       12.48
 POSSIBLY CONDUCTING STATE - EFERMI(AU)  3.3263901E-01 (RES. CHARGE  8.67E-13;IT. 12)
 TTTTTTTTTTTTTTTTTTTTTTTTTTTTTT PDIG        TELAPSE       12.48 TCPU       12.48
 CHARGE NORMALIZATION FACTOR   1.00000000
 TOTAL ATOMIC CHARGES:
   2.6157231   2.6157231  22.7315395  22.7315395   9.8251240   9.8251240
   9.8276134   9.8276134
 TTTTTTTTTTTTTTTTTTTTTTTTTTTTTT MOQGAD      TELAPSE       12.50 TCPU       12.50
 TTTTTTTTTTTTTTTTTTTTTTTTTTTTTT SHELLXN     TELAPSE       23.73 TCPU       23.72
 TTTTTTTTTTTTTTTTTTTTTTTTTTTTTT MONMO3      TELAPSE       23.78 TCPU       23.78
 NUMERICALLY INTEGRATED DENSITY     90.0001678175
 TTTTTTTTTTTTTTTTTTTTTTTTTTTTTT NUMDFT      TELAPSE       25.69 TCPU       25.68
 CYC   1 ETOT(AU) -3.465532841870E+03 DETOT  7.20E+01 tst  0.00E+00 PX  1.00E+00
 TTTTTTTTTTTTTTTTTTTTTTTTTTTTTT DIIS        TELAPSE       25.69 TCPU       25.68
 DIIS TEST: 0.14654E+02 AT SCF   CYCLE   1 - MIX   30 %
 TTTTTTTTTTTTTTTTTTTTTTTTTTTTTT FDIK        TELAPSE       25.70 TCPU       25.69
 POSSIBLY CONDUCTING STATE - EFERMI(AU) -1.7090134E-01 (RES. CHARGE  7.11E-15;IT. 12)
 TTTTTTTTTTTTTTTTTTTTTTTTTTTTTT PDIG        TELAPSE       25.70 TCPU       25.70
 CHARGE NORMALIZATION FACTOR   1.00000000
 TOTAL ATOMIC CHARGES:
  -1.2893445  -1.2893445  36.4564588  36.4564588   2.0015064   2.0015064
   7.8313793   7.8313793
 TTTTTTTTTTTTTTTTTTTTTTTTTTTTTT MOQGAD      TELAPSE       25.72 TCPU       25.71
 TTTTTTTTTTTTTTTTTTTTTTTTTTTTTT SHELLXN     TELAPSE       36.94 TCPU       36.92
 TTTTTTTTTTTTTTTTTTTTTTTTTTTTTT MONMO3      TELAPSE       37.00 TCPU       36.97
 NUMERICALLY INTEGRATED DENSITY     90.0000125873
 TTTTTTTTTTTTTTTTTTTTTTTTTTTTTT NUMDFT      TELAPSE       38.91 TCPU       38.89
 CYC   2 ETOT(AU) -3.397379669198E+03 DETOT  6.82E+01 tst  2.83E+01 PX  7.51E+00
 TTTTTTTTTTTTTTTTTTTTTTTTTTTTTT DIIS        TELAPSE       38.91 TCPU       38.89
 DIIS TEST: 0.59402E+01 AT SCF   CYCLE   2 - DIIS ACTIVE - HISTORY:     2 CYCLES
 TTTTTTTTTTTTTTTTTTTTTTTTTTTTTT FDIK        TELAPSE       38.92 TCPU       38.90
 POSSIBLY CONDUCTING STATE - EFERMI(AU) -2.5729574E+00 (RES. CHARGE  1.80E-12;IT. 14)
 TTTTTTTTTTTTTTTTTTTTTTTTTTTTTT PDIG        TELAPSE       38.92 TCPU       38.90
 CHARGE NORMALIZATION FACTOR   1.00000000
 TOTAL ATOMIC CHARGES:
  10.3904252  10.3904252  22.6100736  22.6100736  10.0005224  10.0005224
   1.9989787   1.9989787
 TTTTTTTTTTTTTTTTTTTTTTTTTTTTTT MOQGAD      TELAPSE       38.94 TCPU       38.92
 TTTTTTTTTTTTTTTTTTTTTTTTTTTTTT SHELLXN     TELAPSE       50.19 TCPU       50.14
 TTTTTTTTTTTTTTTTTTTTTTTTTTTTTT MONMO3      TELAPSE       50.24 TCPU       50.20
 NUMERICALLY INTEGRATED DENSITY     90.0003223953
 TTTTTTTTTTTTTTTTTTTTTTTTTTTTTT NUMDFT      TELAPSE       52.16 TCPU       52.11
 CYC   3 ETOT(AU) -3.165855801681E+03 DETOT  2.32E+02 tst  1.30E+00 PX  1.28E+01
 TTTTTTTTTTTTTTTTTTTTTTTTTTTTTT DIIS        TELAPSE       52.16 TCPU       52.12
 DIIS TEST: 0.16228E+03 AT SCF   CYCLE   3 - DIIS ACTIVE - HISTORY:     3 CYCLES
 TTTTTTTTTTTTTTTTTTTTTTTTTTTTTT FDIK        TELAPSE       52.17 TCPU       52.12
 POSSIBLY CONDUCTING STATE - EFERMI(AU) -2.6243484E+00 (RES. CHARGE  2.06E-12;IT. 12)
 TTTTTTTTTTTTTTTTTTTTTTTTTTTTTT PDIG        TELAPSE       52.17 TCPU       52.13
 CHARGE NORMALIZATION FACTOR   1.00000000
 TOTAL ATOMIC CHARGES:
  10.3928696  10.3928696  22.6073842  22.6073842  10.0011833  10.0011833
   1.9985629   1.9985629
 TTTTTTTTTTTTTTTTTTTTTTTTTTTTTT MOQGAD      TELAPSE       52.19 TCPU       52.14
 TTTTTTTTTTTTTTTTTTTTTTTTTTTTTT SHELLXN     TELAPSE       63.44 TCPU       63.38
 TTTTTTTTTTTTTTTTTTTTTTTTTTTTTT MONMO3      TELAPSE       63.49 TCPU       63.44
 NUMERICALLY INTEGRATED DENSITY     90.0003227339
 TTTTTTTTTTTTTTTTTTTTTTTTTTTTTT NUMDFT      TELAPSE       65.45 TCPU       65.38
 CYC   4 ETOT(AU) -3.165352542574E+03 DETOT  5.03E-01 tst  4.83E-03 PX  2.99E-02
 TTTTTTTTTTTTTTTTTTTTTTTTTTTTTT DIIS        TELAPSE       65.45 TCPU       65.38
 DIIS TEST: 0.16392E+03 AT SCF   CYCLE   4 - DIIS ACTIVE - HISTORY:     4 CYCLES
 TTTTTTTTTTTTTTTTTTTTTTTTTTTTTT FDIK        TELAPSE       65.46 TCPU       65.38
 POSSIBLY CONDUCTING STATE - EFERMI(AU) -2.6271473E+00 (RES. CHARGE  2.24E-11;IT. 14)
 TTTTTTTTTTTTTTTTTTTTTTTTTTTTTT PDIG        TELAPSE       65.46 TCPU       65.39
 CHARGE NORMALIZATION FACTOR   1.00000000
 TOTAL ATOMIC CHARGES:
  10.3932850  10.3932850  22.6069705  22.6069705  10.0011851  10.0011851
   1.9985594   1.9985594
 TTTTTTTTTTTTTTTTTTTTTTTTTTTTTT MOQGAD      TELAPSE       65.48 TCPU       65.40
 TTTTTTTTTTTTTTTTTTTTTTTTTTTTTT SHELLXN     TELAPSE       76.69 TCPU       76.60
 TTTTTTTTTTTTTTTTTTTTTTTTTTTTTT MONMO3      TELAPSE       76.75 TCPU       76.66
 NUMERICALLY INTEGRATED DENSITY     90.0003227819
 TTTTTTTTTTTTTTTTTTTTTTTTTTTTTT NUMDFT      TELAPSE       78.66 TCPU       78.57
 CYC   5 ETOT(AU) -3.165289777685E+03 DETOT  6.28E-02 tst  4.27E-06 PX  5.25E-03
 TTTTTTTTTTTTTTTTTTTTTTTTTTTTTT DIIS        TELAPSE       78.66 TCPU       78.57
 DIIS TEST: 0.16424E+03 AT SCF   CYCLE   5 - DIIS ACTIVE - HISTORY:     5 CYCLES
 TTTTTTTTTTTTTTTTTTTTTTTTTTTTTT FDIK        TELAPSE       78.67 TCPU       78.58
 POSSIBLY CONDUCTING STATE - EFERMI(AU) -2.6334252E+00 (RES. CHARGE  1.20E-11;IT. 12)
 TTTTTTTTTTTTTTTTTTTTTTTTTTTTTT PDIG        TELAPSE       78.67 TCPU       78.58
 CHARGE NORMALIZATION FACTOR   1.00000000
 TOTAL ATOMIC CHARGES:
  10.3934688  10.3934688  22.6067871  22.6067871  10.0011856  10.0011856
   1.9985584   1.9985584
 TTTTTTTTTTTTTTTTTTTTTTTTTTTTTT MOQGAD      TELAPSE       78.69 TCPU       78.60
 TTTTTTTTTTTTTTTTTTTTTTTTTTTTTT SHELLXN     TELAPSE       89.87 TCPU       89.78
 TTTTTTTTTTTTTTTTTTTTTTTTTTTTTT MONMO3      TELAPSE       89.93 TCPU       89.84
 NUMERICALLY INTEGRATED DENSITY     90.0003227831
 TTTTTTTTTTTTTTTTTTTTTTTTTTTTTT NUMDFT      TELAPSE       91.85 TCPU       91.76
 CYC   6 ETOT(AU) -3.165262958676E+03 DETOT  2.68E-02 tst  8.01E-07 PX  1.68E-03
 TTTTTTTTTTTTTTTTTTTTTTTTTTTTTT DIIS        TELAPSE       91.85 TCPU       91.76
 DIIS TEST: 0.16439E+03 AT SCF   CYCLE   6 - DIIS ACTIVE - HISTORY:     6 CYCLES
 TTTTTTTTTTTTTTTTTTTTTTTTTTTTTT FDIK        TELAPSE       91.86 TCPU       91.77
 POSSIBLY CONDUCTING STATE - EFERMI(AU) -2.6452375E+00 (RES. CHARGE  1.92E-13;IT. 16)
 TTTTTTTTTTTTTTTTTTTTTTTTTTTTTT PDIG        TELAPSE       91.86 TCPU       91.77
 CHARGE NORMALIZATION FACTOR   1.00000000
 TOTAL ATOMIC CHARGES:
  10.3939684  10.3939684  22.6062971  22.6062971  10.0011857  10.0011857
   1.9985488   1.9985488
 TTTTTTTTTTTTTTTTTTTTTTTTTTTTTT MOQGAD      TELAPSE       91.87 TCPU       91.79
 TTTTTTTTTTTTTTTTTTTTTTTTTTTTTT SHELLXN     TELAPSE      103.30 TCPU      103.07
 TTTTTTTTTTTTTTTTTTTTTTTTTTTTTT MONMO3      TELAPSE      103.36 TCPU      103.13
 NUMERICALLY INTEGRATED DENSITY     90.0003228119
 TTTTTTTTTTTTTTTTTTTTTTTTTTTTTT NUMDFT      TELAPSE      105.27 TCPU      105.04
 CYC   7 ETOT(AU) -3.165192605417E+03 DETOT  7.04E-02 tst  4.08E-06 PX  4.47E-03
 TTTTTTTTTTTTTTTTTTTTTTTTTTTTTT DIIS        TELAPSE      105.27 TCPU      105.04
 DIIS TEST: 0.16477E+03 AT SCF   CYCLE   7 - DIIS ACTIVE - HISTORY:     7 CYCLES
 TTTTTTTTTTTTTTTTTTTTTTTTTTTTTT FDIK        TELAPSE      105.28 TCPU      105.05
 POSSIBLY CONDUCTING STATE - EFERMI(AU) -2.7465933E+00 (RES. CHARGE  3.55E-11;IT. 12)
 TTTTTTTTTTTTTTTTTTTTTTTTTTTTTT PDIG        TELAPSE      105.28 TCPU      105.05
 CHARGE NORMALIZATION FACTOR   1.00000000
 TOTAL ATOMIC CHARGES:
  10.3980197  10.3980197  22.6022999  22.6022999  10.0011875  10.0011875
   1.9984929   1.9984929
 TTTTTTTTTTTTTTTTTTTTTTTTTTTTTT MOQGAD      TELAPSE      105.30 TCPU      105.07
 TTTTTTTTTTTTTTTTTTTTTTTTTTTTTT SHELLXN     TELAPSE      116.49 TCPU      116.25
 TTTTTTTTTTTTTTTTTTTTTTTTTTTTTT MONMO3      TELAPSE      116.54 TCPU      116.31
 NUMERICALLY INTEGRATED DENSITY     90.0003230027
 TTTTTTTTTTTTTTTTTTTTTTTTTTTTTT NUMDFT      TELAPSE      118.47 TCPU      118.23
 CYC   8 ETOT(AU) -3.164526709629E+03 DETOT  6.66E-01 tst  2.71E-04 PX  1.92E-01
 TTTTTTTTTTTTTTTTTTTTTTTTTTTTTT DIIS        TELAPSE      118.47 TCPU      118.24
 DIIS TEST: 0.16854E+03 AT SCF   CYCLE   8 - DIIS ACTIVE - HISTORY:     8 CYCLES
 TTTTTTTTTTTTTTTTTTTTTTTTTTTTTT FDIK        TELAPSE      118.48 TCPU      118.24
 POSSIBLY CONDUCTING STATE - EFERMI(AU) -2.5901954E+00 (RES. CHARGE  4.96E-11;IT. 12)
 TTTTTTTTTTTTTTTTTTTTTTTTTTTTTT PDIG        TELAPSE      118.48 TCPU      118.25
 CHARGE NORMALIZATION FACTOR   1.00000000
 TOTAL ATOMIC CHARGES:
  10.3959216  10.3959216  22.6043608  22.6043608  10.0011834  10.0011834
   1.9985342   1.9985342
 TTTTTTTTTTTTTTTTTTTTTTTTTTTTTT MOQGAD      TELAPSE      118.50 TCPU      118.26
 TTTTTTTTTTTTTTTTTTTTTTTTTTTTTT SHELLXN     TELAPSE      129.71 TCPU      129.47
 TTTTTTTTTTTTTTTTTTTTTTTTTTTTTT MONMO3      TELAPSE      129.77 TCPU      129.53
 NUMERICALLY INTEGRATED DENSITY     90.0003223312
 TTTTTTTTTTTTTTTTTTTTTTTTTTTTTT NUMDFT      TELAPSE      131.68 TCPU      131.44
 CYC   9 ETOT(AU) -3.165882767102E+03 DETOT -1.36E+00 tst  2.66E-02 PX  1.15E+00
 TTTTTTTTTTTTTTTTTTTTTTTTTTTTTT DIIS        TELAPSE      131.68 TCPU      131.44
 DIIS TEST: 0.88385E+02 AT SCF   CYCLE   9 - DIIS ACTIVE - HISTORY:     9 CYCLES
 TTTTTTTTTTTTTTTTTTTTTTTTTTTTTT FDIK        TELAPSE      131.69 TCPU      131.45
 POSSIBLY CONDUCTING STATE - EFERMI(AU) -2.3232821E+00 (RES. CHARGE  5.54E-11;IT. 12)
 TTTTTTTTTTTTTTTTTTTTTTTTTTTTTT PDIG        TELAPSE      131.69 TCPU      131.45
 CHARGE NORMALIZATION FACTOR   1.00000000
 TOTAL ATOMIC CHARGES:
  10.3731056  10.3731056  22.6269059  22.6269059  10.0011927  10.0011927
   1.9987958   1.9987958
 TTTTTTTTTTTTTTTTTTTTTTTTTTTTTT MOQGAD      TELAPSE      131.71 TCPU      131.47
 TTTTTTTTTTTTTTTTTTTTTTTTTTTTTT SHELLXN     TELAPSE      142.90 TCPU      142.66
 TTTTTTTTTTTTTTTTTTTTTTTTTTTTTT MONMO3      TELAPSE      142.96 TCPU      142.72
 NUMERICALLY INTEGRATED DENSITY     90.0003213083
 TTTTTTTTTTTTTTTTTTTTTTTTTTTTTT NUMDFT      TELAPSE      144.86 TCPU      144.61
 CYC  10 ETOT(AU) -3.168830427159E+03 DETOT -2.95E+00 tst  5.37E-03 PX  1.17E-01
 TTTTTTTTTTTTTTTTTTTTTTTTTTTTTT DIIS        TELAPSE      144.86 TCPU      144.62
 DIIS TEST: 0.76898E+02 AT SCF   CYCLE  10 - DIIS ACTIVE - HISTORY:    10 CYCLES
 TTTTTTTTTTTTTTTTTTTTTTTTTTTTTT FDIK        TELAPSE      144.87 TCPU      144.62
 POSSIBLY CONDUCTING STATE - EFERMI(AU) -2.3058809E+00 (RES. CHARGE  3.62E-11;IT. 12)
 TTTTTTTTTTTTTTTTTTTTTTTTTTTTTT PDIG        TELAPSE      144.87 TCPU      144.63
 CHARGE NORMALIZATION FACTOR   1.00000000
 TOTAL ATOMIC CHARGES:
  10.3703680  10.3703680  22.6296267  22.6296267  10.0012009  10.0012009
   1.9988044   1.9988044
 TTTTTTTTTTTTTTTTTTTTTTTTTTTTTT MOQGAD      TELAPSE      144.89 TCPU      144.64
 TTTTTTTTTTTTTTTTTTTTTTTTTTTTTT SHELLXN     TELAPSE      156.07 TCPU      155.82
 TTTTTTTTTTTTTTTTTTTTTTTTTTTTTT MONMO3      TELAPSE      156.12 TCPU      155.88
 NUMERICALLY INTEGRATED DENSITY     90.0003212972
 TTTTTTTTTTTTTTTTTTTTTTTTTTTTTT NUMDFT      TELAPSE      158.04 TCPU      157.79
 CYC  11 ETOT(AU) -3.169010758327E+03 DETOT -1.80E-01 tst  4.50E-05 PX  1.48E-02
 TTTTTTTTTTTTTTTTTTTTTTTTTTTTTT DIIS        TELAPSE      158.04 TCPU      157.79
 DIIS TEST: 0.76622E+02 AT SCF   CYCLE  11 - DIIS ACTIVE - HISTORY:    11 CYCLES
 TTTTTTTTTTTTTTTTTTTTTTTTTTTTTT FDIK        TELAPSE      158.05 TCPU      157.80
 POSSIBLY CONDUCTING STATE - EFERMI(AU) -2.2373088E+00 (RES. CHARGE  3.53E-11;IT. 12)
 TTTTTTTTTTTTTTTTTTTTTTTTTTTTTT PDIG        TELAPSE      158.05 TCPU      157.80
 CHARGE NORMALIZATION FACTOR   1.00000000
 TOTAL ATOMIC CHARGES:
  10.3731628  10.3731628  22.6268828  22.6268828  10.0011926  10.0011926
   1.9987618   1.9987618
 TTTTTTTTTTTTTTTTTTTTTTTTTTTTTT MOQGAD      TELAPSE      158.07 TCPU      157.82
 TTTTTTTTTTTTTTTTTTTTTTTTTTTTTT SHELLXN     TELAPSE      169.26 TCPU      169.02
 TTTTTTTTTTTTTTTTTTTTTTTTTTTTTT MONMO3      TELAPSE      169.32 TCPU      169.07
 NUMERICALLY INTEGRATED DENSITY     90.0003214995
 TTTTTTTTTTTTTTTTTTTTTTTTTTTTTT NUMDFT      TELAPSE      171.23 TCPU      170.98
 CYC  12 ETOT(AU) -3.168802398873E+03 DETOT  2.08E-01 tst  9.38E-05 PX  2.00E-02
 TTTTTTTTTTTTTTTTTTTTTTTTTTTTTT DIIS        TELAPSE      171.23 TCPU      170.99
 DIIS TEST: 0.76767E+02 AT SCF   CYCLE  12 - DIIS ACTIVE - HISTORY:    12 CYCLES
 TTTTTTTTTTTTTTTTTTTTTTTTTTTTTT FDIK        TELAPSE      171.24 TCPU      170.99
 POSSIBLY CONDUCTING STATE - EFERMI(AU) -2.2575946E+00 (RES. CHARGE  3.27E-11;IT. 12)
 TTTTTTTTTTTTTTTTTTTTTTTTTTTTTT PDIG        TELAPSE      171.24 TCPU      171.00
 CHARGE NORMALIZATION FACTOR   1.00000000
 TOTAL ATOMIC CHARGES:
  10.3801344  10.3801344  22.6199893  22.6199893  10.0011837  10.0011837
   1.9986926   1.9986926
 TTTTTTTTTTTTTTTTTTTTTTTTTTTTTT MOQGAD      TELAPSE      171.26 TCPU      171.01
 TTTTTTTTTTTTTTTTTTTTTTTTTTTTTT SHELLXN     TELAPSE      182.45 TCPU      182.21
 TTTTTTTTTTTTTTTTTTTTTTTTTTTTTT MONMO3      TELAPSE      182.51 TCPU      182.26
 NUMERICALLY INTEGRATED DENSITY     90.0003219271
 TTTTTTTTTTTTTTTTTTTTTTTTTTTTTT NUMDFT      TELAPSE      184.42 TCPU      184.17
 CYC  13 ETOT(AU) -3.168129907090E+03 DETOT  6.72E-01 tst  5.15E-04 PX  1.19E-01
 TTTTTTTTTTTTTTTTTTTTTTTTTTTTTT DIIS        TELAPSE      184.42 TCPU      184.17
 DIIS TEST: 0.78358E+02 AT SCF   CYCLE  13 - DIIS ACTIVE - HISTORY:    13 CYCLES
 TTTTTTTTTTTTTTTTTTTTTTTTTTTTTT FDIK        TELAPSE      184.43 TCPU      184.18
 POSSIBLY CONDUCTING STATE - EFERMI(AU) -2.2901006E+00 (RES. CHARGE  2.69E-12;IT. 14)
 TTTTTTTTTTTTTTTTTTTTTTTTTTTTTT PDIG        TELAPSE      184.43 TCPU      184.18
 CHARGE NORMALIZATION FACTOR   1.00000000
 TOTAL ATOMIC CHARGES:
  10.3805930  10.3805930  22.6190328  22.6190328  10.0011807  10.0011807
   1.9991935   1.9991935
 TTTTTTTTTTTTTTTTTTTTTTTTTTTTTT MOQGAD      TELAPSE      184.45 TCPU      184.20
 TTTTTTTTTTTTTTTTTTTTTTTTTTTTTT SHELLXN     TELAPSE      195.75 TCPU      195.45
 TTTTTTTTTTTTTTTTTTTTTTTTTTTTTT MONMO3      TELAPSE      195.81 TCPU      195.50
 NUMERICALLY INTEGRATED DENSITY     90.0003224621
 TTTTTTTTTTTTTTTTTTTTTTTTTTTTTT NUMDFT      TELAPSE      197.73 TCPU      197.43
 CYC  14 ETOT(AU) -3.168422293686E+03 DETOT -2.92E-01 tst  1.03E-01 PX  7.49E-01
 TTTTTTTTTTTTTTTTTTTTTTTTTTTTTT DIIS        TELAPSE      197.74 TCPU      197.43
 DIIS TEST: 0.15275E+03 AT SCF   CYCLE  14 - DIIS ACTIVE - HISTORY:    14 CYCLES
 TTTTTTTTTTTTTTTTTTTTTTTTTTTTTT FDIK        TELAPSE      197.74 TCPU      197.44
 POSSIBLY CONDUCTING STATE - EFERMI(AU) -2.2811604E+00 (RES. CHARGE  6.37E-10;IT. 12)
 TTTTTTTTTTTTTTTTTTTTTTTTTTTTTT PDIG        TELAPSE      197.75 TCPU      197.44
 CHARGE NORMALIZATION FACTOR   1.00000000
 TOTAL ATOMIC CHARGES:
  10.3812647  10.3812647  22.6183999  22.6183999  10.0011861  10.0011861
   1.9991493   1.9991493
 TTTTTTTTTTTTTTTTTTTTTTTTTTTTTT MOQGAD      TELAPSE      197.76 TCPU      197.46
 TTTTTTTTTTTTTTTTTTTTTTTTTTTTTT SHELLXN     TELAPSE      209.03 TCPU      208.69
 TTTTTTTTTTTTTTTTTTTTTTTTTTTTTT MONMO3      TELAPSE      209.08 TCPU      208.75
 NUMERICALLY INTEGRATED DENSITY     90.0003225559
 TTTTTTTTTTTTTTTTTTTTTTTTTTTTTT NUMDFT      TELAPSE      210.99 TCPU      210.66
 CYC  15 ETOT(AU) -3.168423602196E+03 DETOT -1.31E-03 tst  1.13E-04 PX  1.25E-02
 TTTTTTTTTTTTTTTTTTTTTTTTTTTTTT DIIS        TELAPSE      211.00 TCPU      210.66
 DIIS TEST: 0.15205E+03 AT SCF   CYCLE  15 - DIIS ACTIVE - HISTORY:    15 CYCLES
 TTTTTTTTTTTTTTTTTTTTTTTTTTTTTT FDIK        TELAPSE      211.00 TCPU      210.67
 POSSIBLY CONDUCTING STATE - EFERMI(AU) -2.3519693E+00 (RES. CHARGE  3.55E-14;IT. 16)
 TTTTTTTTTTTTTTTTTTTTTTTTTTTTTT PDIG        TELAPSE      211.01 TCPU      210.67
 CHARGE NORMALIZATION FACTOR   1.00000000
 TOTAL ATOMIC CHARGES:
  10.3836142  10.3836142  22.6160411  22.6160411  10.0011880  10.0011880
   1.9991567   1.9991567
 TTTTTTTTTTTTTTTTTTTTTTTTTTTTTT MOQGAD      TELAPSE      211.02 TCPU      210.69
 TTTTTTTTTTTTTTTTTTTTTTTTTTTTTT SHELLXN     TELAPSE      222.20 TCPU      221.87
 TTTTTTTTTTTTTTTTTTTTTTTTTTTTTT MONMO3      TELAPSE      222.26 TCPU      221.92
 NUMERICALLY INTEGRATED DENSITY     90.0003224816
 TTTTTTTTTTTTTTTTTTTTTTTTTTTTTT NUMDFT      TELAPSE      224.17 TCPU      223.84
 CYC  16 ETOT(AU) -3.168079340122E+03 DETOT  3.44E-01 tst  2.07E-04 PX  1.04E-02
 TTTTTTTTTTTTTTTTTTTTTTTTTTTTTT DIIS        TELAPSE      224.18 TCPU      223.84
 DIIS TEST: 0.15458E+03 AT SCF   CYCLE  16 - DIIS ACTIVE - HISTORY:    16 CYCLES
 TTTTTTTTTTTTTTTTTTTTTTTTTTTTTT FDIK        TELAPSE      224.18 TCPU      223.85
 POSSIBLY CONDUCTING STATE - EFERMI(AU) -2.3504506E+00 (RES. CHARGE  2.13E-14;IT. 16)
 TTTTTTTTTTTTTTTTTTTTTTTTTTTTTT PDIG        TELAPSE      224.19 TCPU      223.85
 CHARGE NORMALIZATION FACTOR   1.00000000
 TOTAL ATOMIC CHARGES:
  10.3835501  10.3835501  22.6161054  22.6161054  10.0011865  10.0011865
   1.9991580   1.9991580
 TTTTTTTTTTTTTTTTTTTTTTTTTTTTTT MOQGAD      TELAPSE      224.20 TCPU      223.87
 TTTTTTTTTTTTTTTTTTTTTTTTTTTTTT SHELLXN     TELAPSE      235.39 TCPU      235.06
 TTTTTTTTTTTTTTTTTTTTTTTTTTTTTT MONMO3      TELAPSE      235.45 TCPU      235.11
 NUMERICALLY INTEGRATED DENSITY     90.0003224803
 TTTTTTTTTTTTTTTTTTTTTTTTTTTTTT NUMDFT      TELAPSE      237.37 TCPU      237.04
 CYC  17 ETOT(AU) -3.168090951555E+03 DETOT -1.16E-02 tst  7.92E-07 PX  8.78E-04
 TTTTTTTTTTTTTTTTTTTTTTTTTTTTTT DIIS        TELAPSE      237.38 TCPU      237.04
 DIIS TEST: 0.15444E+03 AT SCF   CYCLE  17 - DIIS ACTIVE - HISTORY:    17 CYCLES
 TTTTTTTTTTTTTTTTTTTTTTTTTTTTTT FDIK        TELAPSE      237.39 TCPU      237.05
 POSSIBLY CONDUCTING STATE - EFERMI(AU) -2.3235602E+00 (RES. CHARGE  1.87E-10;IT. 12)
 TTTTTTTTTTTTTTTTTTTTTTTTTTTTTT PDIG        TELAPSE      237.39 TCPU      237.05
 CHARGE NORMALIZATION FACTOR   1.00000000
 TOTAL ATOMIC CHARGES:
  10.3842197  10.3842197  22.6155125  22.6155125  10.0011824  10.0011824
   1.9990853   1.9990853
 TTTTTTTTTTTTTTTTTTTTTTTTTTTTTT MOQGAD      TELAPSE      237.41 TCPU      237.07
 TTTTTTTTTTTTTTTTTTTTTTTTTTTTTT SHELLXN     TELAPSE      248.65 TCPU      248.27
 TTTTTTTTTTTTTTTTTTTTTTTTTTTTTT MONMO3      TELAPSE      248.71 TCPU      248.33
 NUMERICALLY INTEGRATED DENSITY     90.0003226945
 TTTTTTTTTTTTTTTTTTTTTTTTTTTTTT NUMDFT      TELAPSE      250.62 TCPU      250.24
 CYC  18 ETOT(AU) -3.168038594627E+03 DETOT  5.24E-02 tst  2.46E-04 PX  2.30E-02
 TTTTTTTTTTTTTTTTTTTTTTTTTTTTTT DIIS        TELAPSE      250.62 TCPU      250.24
 DIIS TEST: 0.15375E+03 AT SCF   CYCLE  18 - DIIS ACTIVE - HISTORY:    18 CYCLES
 TTTTTTTTTTTTTTTTTTTTTTTTTTTTTT FDIK        TELAPSE      250.63 TCPU      250.25
 POSSIBLY CONDUCTING STATE - EFERMI(AU) -2.2985130E+00 (RES. CHARGE  3.71E-11;IT. 14)
 TTTTTTTTTTTTTTTTTTTTTTTTTTTTTT PDIG        TELAPSE      250.63 TCPU      250.25
 CHARGE NORMALIZATION FACTOR   1.00000000
 TOTAL ATOMIC CHARGES:
  10.3832942  10.3832942  22.6164582  22.6164582  10.0011818  10.0011818
   1.9990658   1.9990658
 TTTTTTTTTTTTTTTTTTTTTTTTTTTTTT MOQGAD      TELAPSE      250.65 TCPU      250.27
 TTTTTTTTTTTTTTTTTTTTTTTTTTTTTT SHELLXN     TELAPSE      261.84 TCPU      261.46
 TTTTTTTTTTTTTTTTTTTTTTTTTTTTTT MONMO3      TELAPSE      261.89 TCPU      261.51
 NUMERICALLY INTEGRATED DENSITY     90.0003227522
 TTTTTTTTTTTTTTTTTTTTTTTTTTTTTT NUMDFT      TELAPSE      263.80 TCPU      263.42
 CYC  19 ETOT(AU) -3.168157161128E+03 DETOT -1.19E-01 tst  9.88E-05 PX  9.76E-03
 TTTTTTTTTTTTTTTTTTTTTTTTTTTTTT DIIS        TELAPSE      263.81 TCPU      263.42
 DIIS TEST: 0.15269E+03 AT SCF   CYCLE  19 - DIIS ACTIVE - HISTORY:    19 CYCLES
 TTTTTTTTTTTTTTTTTTTTTTTTTTTTTT FDIK        TELAPSE      263.81 TCPU      263.43
 POSSIBLY CONDUCTING STATE - EFERMI(AU) -2.4008136E+00 (RES. CHARGE  1.42E-10;IT. 14)
 TTTTTTTTTTTTTTTTTTTTTTTTTTTTTT PDIG        TELAPSE      263.82 TCPU      263.43
 CHARGE NORMALIZATION FACTOR   1.00000000
 TOTAL ATOMIC CHARGES:
  10.3864139  10.3864139  22.6134354  22.6134354  10.0011837  10.0011837
   1.9989670   1.9989670
 TTTTTTTTTTTTTTTTTTTTTTTTTTTTTT MOQGAD      TELAPSE      263.83 TCPU      263.45
 TTTTTTTTTTTTTTTTTTTTTTTTTTTTTT SHELLXN     TELAPSE      275.01 TCPU      274.62

 ::: DIPOLE MOMENT ALONG NON PERIODIC DIRECTIONS:
 ::: A.U.     (Z)  0.00000E+00
 ::: DEBYE         0.00000E+00

 +++ ENERGIES IN A.U. +++
 ::: EXT EL-POLE                                  -2.9765780896533E+04
 ::: EXT EL-SPHEROPOLE                             0.0000000000000E+00
 ::: BIELET ZONE E-E                               3.1980945345220E+03
 ::: TOTAL E-E                                    -2.6567686362011E+04
 ::: TOTAL E-N + N-E                               4.9853781543405E+04
 ::: TOTAL N-N                                    -2.9750518386750E+04
 ::: KINETIC ENERGY                                3.4236787733470E+03
 ::: PSEUDO TOTAL   ENERGY                        -3.0407444320098E+03
 ::: VIRIAL COEFFICIENT                            1.0592372017073E+00
 TTTTTTTTTTTTTTTTTTTTTTTTTTTTTT MONMO3      TELAPSE      275.06 TCPU      274.68
 NUMERICALLY INTEGRATED DENSITY     90.0003229075
 TTTTTTTTTTTTTTTTTTTTTTTTTTTTTT NUMDFT      TELAPSE      276.96 TCPU      276.58
 CYC  20 ETOT(AU) -3.167788761350E+03 DETOT  3.68E-01 tst  1.92E-04 PX  9.76E-03

 == SCF ENDED - TOO MANY CYCLES            E(AU) -3.1677887613502E+03 CYCLES  20


 ENERGY EXPRESSION=HARTREE+FOCK EXCH*0.20000+(BECKE      EXCH)*0.80000+LYP        CORR


 TOTAL ENERGY(DFT)(AU)( 20) -3.1677887613502E+03 DE 3.7E-01 tester 1.9E-04
 TTTTTTTTTTTTTTTTTTTTTTTTTTTTTT EDFT        TELAPSE      276.96 TCPU      276.58
 EIGENVECTORS IN FORTRAN UNIT  8
 TTTTTTTTTTTTTTTTTTTTTTTTTTTTTT END         TELAPSE      276.98 TCPU      276.59
 EEEEEEEEEE TERMINATION  DATE 15 02 2022 TIME 18:48:13.8
Tue 15 Feb 2022 18:48:13 GMT
Contents of temporary directory:
total 6112
-rw-r--r--  1 brunocamino  admin  378080 15 Feb 18:48 diis_Fg
-rw-r--r--  1 brunocamino  admin  225360 15 Feb 18:47 diis_Fia1
-rw-r--r--  1 brunocamino  admin  237880 15 Feb 18:48 diis_Fia2
-rw-r--r--  1 brunocamino  admin       0 15 Feb 18:43 diis_Sk
-rw-r--r--  1 brunocamino  admin  614776 15 Feb 18:47 fort.10
-rw-r--r--  1 brunocamino  admin   18904 15 Feb 18:48 fort.11
-rw-r--r--  1 brunocamino  admin    2699 15 Feb 18:43 fort.34
-rw-r--r--  1 brunocamino  admin   44800 15 Feb 18:43 fort.61
-rw-r--r--  1 brunocamino  admin   30400 15 Feb 18:43 fort.62
-rw-r--r--  1 brunocamino  admin  614776 15 Feb 18:48 fort.8
-rw-r--r--  1 brunocamino  admin  185500 15 Feb 18:48 fort.9
-rw-r--r--  1 brunocamino  admin   49520 15 Feb 18:47 fort.95
-rw-r--r--  1 brunocamino  admin  475781 15 Feb 18:48 fort.98
wave function binary file /Users/brunocamino/Desktop/Imperial/cmsg_icl/ml-surface-adsorption/data/Cu_O_100_8_BSSE_ads.f9
file fort.98 saved as /Users/brunocamino/Desktop/Imperial/cmsg_icl/ml-surface-adsorption/data/Cu_O_100_8_BSSE_ads.f98
geometry input file fort.34 saved as /Users/brunocamino/Desktop/Imperial/cmsg_icl/ml-surface-adsorption/data/Cu_O_100_8_BSSE_ads.gui
temporary directory /Users/brunocamino/crystal/tmp removed
