date Tue 15 Feb 2022 11:42:36 GMT
hostname MacBook-Pro-3.local
system Darwin MacBook-Pro-3.local 21.3.0 Darwin Kernel Version 21.3.0: Wed Jan 5 21:37:58 PST 2022; root:xnu-8019.80.24~20/RELEASE_ARM64_T8101 arm64
user brunocamino
output data in /Users/brunocamino/Desktop/Imperial/cmsg_icl/ml-surface-adsorption/data/Cu_O_100_1_BSSE_sub.out
crystal executable in /Users/brunocamino/crystal
input data in /Users/brunocamino/Desktop/Imperial/cmsg_icl/ml-surface-adsorption/data/Cu_O_100_1_BSSE_sub.d12
temporary directory /Users/brunocamino/crystal/tmp
external geometry input from /Users/brunocamino/Desktop/Imperial/cmsg_icl/ml-surface-adsorption/data/Cu_O_100_1_BSSE_sub.gui
external geometry input saved in /Users/brunocamino/Desktop/Imperial/cmsg_icl/ml-surface-adsorption/data/Cu_O_100_1_BSSE_sub_inp.gui
Adsorption tests
EXTERNAL
EXTPRT
BASISSET
STO-3G
GHOSTS
2
2 3
DFT
B3LYP
XXLGRID
ENDDFT
TOLINTEG
5 5 5 5 10
SHRINK
6 12
MAXCYCLE
20
ENDSCF

         
 *******************************************************************************
 *                                                                             *
 *                               CRYSTAL17                                     *
 *                      public : 1.0.2 - March 1st, 2018                       *
 *                       HTTP://WWW.CRYSTAL.UNITO.IT                           *
 *                                                                             *
 *                              MAIN AUTHORS                                   *
 *                                                                             *
 *  R. DOVESI(1,11), V.R. SAUNDERS(2), C. ROETTI(1,11), R. ORLANDO(1,11),      *
 *  C.M. ZICOVICH-WILSON(1,3), F. PASCALE(4), B. CIVALLERI(1,11),              *
 *  K. DOLL(5), N.M. HARRISON(2,6), I.J. BUSH(7), Ph. D'ARCO(8),               *
 *  M. LLUNELL(9), M. CAUSA'(10), Y. NOEL(8), L. MASCHIO(1,11), A. ERBA(1,11)  *
 *  M. RE'RAT(14), S. CASASSA(1,11)                                            *
 *                                                                             *
 *        CONTRIBUTIONS TO THE CODE HAVE ALSO BEEN GIVEN BY                    *
 *                                                                             *
 *  M. FERRABONE(1,11), M. DE LA PIERRE(1,11), M. FERRERO(1,11),               *
 *  J. BAIMA(1,11), E. ALBANESE(1,11), M.F. PEINTINGER(12), R. BAST(13),       *
 *  B. KIRTMAN(15), V. LACIVITA(1,11), R. DEMICHELIS(1,16)                     *
 *  G. BRANDEBURG(17), S. SALUSTRO(1,11), G. SANSONE(1,11)                     *
 *  M.T. RUGGIERO(18)                                                          *
 *                                                                             *
 * (1) THEORETICAL CHEMISTRY GROUP - UNIVERSITA' DI TORINO - TORINO (ITALY)    *
 * (2) COMPUTATIONAL SCIENCE & ENGINEERING DEPARTMENT - STFC DARESBURY (UK)    *
 * (3) UNIVERSIDAD AUTONOMA DEL ESTADO DE MORELOS - CUERNAVACA (MEXICO)        *
 * (4) UNIVERSITE' DE LORRAINE - NANCY (FRANCE)                                *
 * (5) UNIVERSITAET STUTTGART- STUTTGART (GERMANY)                             *
 * (6) IMPERIAL COLLEGE - LONDON (UK)                                          *
 * (7) OXFORD E-RESEARCH CENTRE - OXFORD (UK)                                  *
 * (8) UPMC - SORBONNE UNIVERSITES - PARIS (FRANCE)                            *
 * (9) UNIVERSIDAD DE BARCELONA - BARCELONA (SPAIN)                            *
 *(10) UNIVERSITA' DI NAPOLI "FEDERICO II" - NAPOLI (ITALY)                    *
 *(11) NIS - NANOSTRUCTURED INTERFACES AND SURFACES - TORINO (ITALY)           *
 *(12) MPI FUER CHEMISCHE ENERGIEKONVERSION - MUELHEIM AN DER RUHR (GERMANY)   *
 *(13) UNIVERSITY OF TROMSO - TROMSO (NORWAY)                                  *
 *(14) UNIVERSITE' DE PAU ET DES PAYS DE L'ADOUR - PAU (FRANCE)                *
 *(15) UNIVERSITY OF CALIFORNIA SANTA BARBARA - SANTA BARBARA (USA)            *
 *(16) CURTIN UNIVERSITY - PERTH (AUSTRALIA)                                   *
 *(17) UNIVERSITY COLLEGE LONDON - LONDON (UK)                                 *
 *(18) CAMBRIDGE UNIVERSITY - CAMBRIDGE (UK)                                   *
 *                                                                             *
 *******************************************************************************
 EEEEEEEEEE STARTING  DATE 15 02 2022 TIME 11:42:36.3
 Adsorption tests                                                                

 GEOMETRY INPUT FROM EXTERNAL FILE (FORTRAN UNIT 34)
 2D - SLAB    

 *******************************************************************************
 LATTICE PARAMETERS  (ANGSTROMS AND DEGREES) - PRIMITIVE CELL
       A          B          C        ALPHA      BETA     GAMMA        VOLUME
    2.56062    2.56062  500.00000    90.00000  90.00000 120.00000      5.678329
 INFORMATION **** CHKGRP **** SPGR WITH NO INVERSION

 NUMBER OF IRREDUCIBLE ATOMS IN THE CELL:    3

 CARTESIAN COORDINATES (ANGSTROM) - IRREDUCIBLE ATOMS AND SYMMETRY RELATED

 AT.IRR.  AT  AT.N.          X                   Y                   Z
     1     1    29    1.280309458327E+00  7.391870104110E-01  1.045370000000E+00
     1     2    29    1.280309461124E+00 -7.391870152560E-01  1.045370000000E+00
     3     3     8    1.280309458327E+00  7.391870104110E-01 -9.546300000000E-01
     3     4     8    1.280309461124E+00 -7.391870152560E-01 -9.546300000000E-01
     5     5     8    1.280309458327E+00  7.391870104110E-01  3.045370000000E+00
     5     6     8    1.280309461124E+00 -7.391870152560E-01  3.045370000000E+00

 SYMMETRY CHANGED DURING OLD RUN :  INFORMATION ON SPACE GROUP LOST 
 NUMBER OF SYMMETRY OPERATORS         :   12
 *******************************************************************************
 LATTICE PARAMETERS (ANGSTROMS AND DEGREES) - BOHR = 0.5291772083 ANGSTROM
 PRIMITIVE CELL
         A              B              C           ALPHA      BETA       GAMMA 
     2.56061892     2.56061892   500.00000000    90.000000  90.000000 120.000000
 *******************************************************************************
 ATOMS IN THE ASYMMETRIC UNIT    3 - ATOMS IN THE UNIT CELL:    6
     ATOM                 X/A                 Y/B             Z(ANGSTROM)
 *******************************************************************************
      1 T  29 CU    3.333333333319E-01 -3.333333333343E-01  1.045370000000E+00
      2 F  29 CU   -3.333333311495E-01  3.333333333318E-01  1.045370000000E+00
      3 T   8 O     3.333333333319E-01 -3.333333333343E-01 -9.546300000000E-01
      4 F   8 O    -3.333333311495E-01  3.333333333318E-01 -9.546300000000E-01
      5 T   8 O     3.333333333319E-01 -3.333333333343E-01  3.045370000000E+00
      6 F   8 O    -3.333333311495E-01  3.333333333318E-01  3.045370000000E+00

 T = ATOM BELONGING TO THE ASYMMETRIC UNIT
 *******************************************************************************
 * GEOMETRY EDITING - INPUT COORDINATES ARE GIVEN IN ANGSTROM         
 *******************************************************************************

 GEOMETRY NOW FULLY CONSISTENT WITH THE GROUP

 GCALCO - MAX INDICES DIRECT LATTICE VECTOR    83    83     0
 NO.OF VECTORS CREATED 6999 STARS  503 RMAX   212.74519 BOHR

 GEOMETRY FOR WAVE FUNCTION - DIMENSIONALITY OF THE SYSTEM    2
 (NON PERIODIC DIRECTION: LATTICE PARAMETER FORMALLY SET TO 500)
 *******************************************************************************
 LATTICE PARAMETERS (ANGSTROMS AND DEGREES) - BOHR = 0.5291772083 ANGSTROM
 PRIMITIVE CELL
         A              B              C           ALPHA      BETA       GAMMA 
     2.56061892     2.56061892   500.00000000    90.000000  90.000000 120.000000
 *******************************************************************************
 ATOMS IN THE ASYMMETRIC UNIT    3 - ATOMS IN THE UNIT CELL:    6
     ATOM                 X/A                 Y/B             Z(ANGSTROM)
 *******************************************************************************
      1 T  29 CU    3.333333333333E-01 -3.333333333333E-01  1.045370000000E+00
      2 F  29 CU   -3.333333311484E-01  3.333333333353E-01  1.045370000000E+00
      3 T   8 O     3.333333333333E-01 -3.333333333333E-01 -9.546300000000E-01
      4 F   8 O    -3.333333311484E-01  3.333333333353E-01 -9.546300000000E-01
      5 T   8 O     3.333333333333E-01 -3.333333333333E-01  3.045370000000E+00
      6 F   8 O    -3.333333311484E-01  3.333333333353E-01  3.045370000000E+00

 T = ATOM BELONGING TO THE ASYMMETRIC UNIT

 ****   12 SYMMOPS - TRANSLATORS IN FRACTIONAL UNITS
 **** MATRICES AND TRANSLATORS IN THE CRYSTALLOGRAPHIC REFERENCE FRAME
   V INV                    ROTATION MATRICES                   TRANSLATORS
   1   1  1.00  0.00  0.00  0.00  1.00  0.00  0.00  0.00  1.00  0.00  0.00  0.00
   2   3  1.00 -1.00  0.00  1.00  0.00  0.00  0.00  0.00  1.00  0.00  0.00  0.00
   3   2  0.00  1.00  0.00 -1.00  1.00  0.00  0.00  0.00  1.00  0.00  0.00  0.00
   4   4 -1.00  0.00  0.00  0.00 -1.00  0.00  0.00  0.00  1.00  0.00  0.00  0.00
   5   6 -1.00  1.00  0.00 -1.00 -0.00  0.00  0.00  0.00  1.00  0.00  0.00  0.00
   6   5 -0.00 -1.00  0.00  1.00 -1.00  0.00  0.00  0.00  1.00  0.00  0.00  0.00
   7   7 -1.00 -0.00  0.00 -1.00  1.00  0.00  0.00  0.00  1.00  0.00  0.00  0.00
   8   8 -1.00  1.00  0.00  0.00  1.00  0.00  0.00  0.00  1.00  0.00  0.00  0.00
   9   9  0.00  1.00  0.00  1.00  0.00  0.00  0.00  0.00  1.00  0.00  0.00  0.00
  10  10  1.00  0.00  0.00  1.00 -1.00  0.00  0.00  0.00  1.00  0.00  0.00  0.00
  11  11  1.00 -1.00  0.00 -0.00 -1.00  0.00  0.00  0.00  1.00  0.00  0.00  0.00
  12  12  0.00 -1.00  0.00 -1.00  0.00  0.00  0.00  0.00  1.00  0.00  0.00  0.00

 DIRECT LATTICE VECTORS CARTESIAN COMPONENTS (ANGSTROM)
          X                    Y                    Z
   0.128030945833E+01  -0.221756103123E+01   0.000000000000E+00
   0.128030945833E+01   0.221756103123E+01   0.000000000000E+00
   0.000000000000E+00   0.000000000000E+00   0.500000000000E+03


 CARTESIAN COORDINATES - PRIMITIVE CELL
 *******************************************************************************
 *      ATOM          X(ANGSTROM)         Y(ANGSTROM)         Z(ANGSTROM)
 *******************************************************************************
    1    29 CU    1.280309458330E+00  7.391870104100E-01  1.045370000000E+00
    2    29 CU    1.280309461130E+00 -7.391870152510E-01  1.045370000000E+00
    3     8 O     1.280309458330E+00  7.391870104100E-01 -9.546300000000E-01
    4     8 O     1.280309461130E+00 -7.391870152510E-01 -9.546300000000E-01
    5     8 O     1.280309458330E+00  7.391870104100E-01  3.045370000000E+00
    6     8 O     1.280309461130E+00 -7.391870152510E-01  3.045370000000E+00

 *******************************************************************************
 STARTING BASIS SET HANDLING 
 *******************************************************************************

 Loading internal basis set: STO-3G              

 Please cite in your publication:
 H - Ne: W.J. Hehre, R.F. Stewart and J.A. Pople, J. Chem. Phys. 2657 (1969).   
                                                                                
                                                                                
                    
 Na - Ar: W.J. Hehre, R. Ditchfield, R.F. Stewart, J.A. Pople, J. Chem. Phys.  2
 769 (1970).                                                                    
                                                                                
                    
 K,Ca: W.J. Pietro, B.A. Levy, W.J. Hehre and R.F. Stewart, Inorg. Chem., 1980, 
 19 (8), pp 2225-2229                                                           
                                                                                
                    
 Ga-Kr: J. Am. Chem. Soc. 19, 2225 (1980).                                      
                                                                                
                                                                                
                    
 Sc-Zn, Y-Cd: W.J. Pietro and W.J. Hehre, J. Comp. Chem. 4, 241 (1983).         
                                                                                
                                                                                
                    

 *******************************************************************************
 LOCAL ATOMIC FUNCTIONS BASIS SET
 *******************************************************************************
   ATOM   X(AU)   Y(AU)   Z(AU)  N. TYPE  EXPONENT  S COEF   P COEF   D/F/G COEF
 *******************************************************************************
   1 CU   2.419   1.397   1.975
                                  1 S  
                                         1.802E+03 1.543E-01 0.000E+00 0.000E+00
                                         3.282E+02 5.353E-01 0.000E+00 0.000E+00
                                         8.882E+01 4.446E-01 0.000E+00 0.000E+00
                                  2 S  
                                         1.441E+02-9.997E-02 0.000E+00 0.000E+00
                                         3.349E+01 3.995E-01 0.000E+00 0.000E+00
                                         1.089E+01 7.001E-01 0.000E+00 0.000E+00
                                  3 S  
                                         1.131E+01-2.278E-01 0.000E+00 0.000E+00
                                         3.449E+00 2.175E-01 0.000E+00 0.000E+00
                                         1.331E+00 9.167E-01 0.000E+00 0.000E+00
                                  4 S  
                                         6.309E-01-3.088E-01 0.000E+00 0.000E+00
                                         2.329E-01 1.961E-02 0.000E+00 0.000E+00
                                         1.028E-01 1.131E+00 0.000E+00 0.000E+00
                           5-     7 P  
                                         1.441E+02 0.000E+00 1.559E-01 0.000E+00
                                         3.349E+01 0.000E+00 6.077E-01 0.000E+00
                                         1.089E+01 0.000E+00 3.920E-01 0.000E+00
                           8-    10 P  
                                         1.131E+01 0.000E+00 4.952E-03 0.000E+00
                                         3.449E+00 0.000E+00 5.778E-01 0.000E+00
                                         1.331E+00 0.000E+00 4.846E-01 0.000E+00
                          11-    13 P  
                                         6.309E-01 0.000E+00-1.215E-01 0.000E+00
                                         2.329E-01 0.000E+00 5.715E-01 0.000E+00
                                         1.028E-01 0.000E+00 5.499E-01 0.000E+00
                          14-    18 D  
                                         9.648E+00 0.000E+00 0.000E+00 2.198E-01
                                         2.943E+00 0.000E+00 0.000E+00 6.555E-01
                                         1.135E+00 0.000E+00 0.000E+00 2.866E-01
   2 CU   2.419  -1.397   1.975
   3 O    2.419   1.397  -1.804
                                 37 S  
                                         1.307E+02 1.543E-01 0.000E+00 0.000E+00
                                         2.381E+01 5.353E-01 0.000E+00 0.000E+00
                                         6.444E+00 4.446E-01 0.000E+00 0.000E+00
                                 38 S  
                                         5.033E+00-9.997E-02 0.000E+00 0.000E+00
                                         1.170E+00 3.995E-01 0.000E+00 0.000E+00
                                         3.804E-01 7.001E-01 0.000E+00 0.000E+00
                          39-    41 P  
                                         5.033E+00 0.000E+00 1.559E-01 0.000E+00
                                         1.170E+00 0.000E+00 6.077E-01 0.000E+00
                                         3.804E-01 0.000E+00 3.920E-01 0.000E+00
   4 O    2.419  -1.397  -1.804
   5 O    2.419   1.397   5.755
   6 O    2.419  -1.397   5.755

 *******************************************************************************
 FINISHED BASIS SET HANDLING 
 *******************************************************************************

 INFORMATION **** SET_MPP **** PCRYSTAL CALCULATION
 INFORMATION **** READM2 **** NEW DEFAULT: FOCK/KS MATRIX MIXING SET TO 30 %
 INFORMATION **** READM2 **** NEW DEFAULT: FULL DIRECT SCF MODE
 INFORMATION **** READM2 **** NEW DEFAULT: COULOMB BIPOLAR BUFFER SET TO 32 Mb
 INFORMATION **** READM2 **** NEW DEFAULT: EXCHANGE BIPOLAR BUFFER SET TO 32 Mb

 *******************************************************************************
 * ATOMS TRANSFORMED INTO GHOSTS :   2
   2( 29)   3(  8)
 SYMMETRY MAY BE BROKEN
 THE NUMBER OF SYMMETRY OPERATORS HAS BEEN REDUCED FROM 12 TO  6
 *******************************************************************************

 *******************************************************************************
 NEW DEFAULT: DFT INTEGRATION GRID INCREASED TO XLGRID
 NEW DEFAULT: DIIS ACCELERATOR ACTIVE
 USE KEYWORD NODIIS TO TURN IT OFF
 *******************************************************************************

 INFORMATION **** TOLINTEG **** COULOMB AND EXCHANGE SERIES TOLERANCES MODIFIED
 INFORMATION **** MAXCYCLE **** MAX NUMBER OF SCF CYCLES SET TO          20

 GHOST ATOMS - REMOVAL OF NUCLEAR CHARGE AND ELECTRONS
 TOTAL NUCLEAR CHARGE        5.300000E+01
 TOTAL ELECTRONIC CHARGE     5.300000E+01
 *******************************************************************************
 N. OF ATOMS PER CELL         6  COULOMB OVERLAP TOL         (T1) 10**   -5
 NUMBER OF SHELLS            28  COULOMB PENETRATION TOL     (T2) 10**   -5
 NUMBER OF AO                56  EXCHANGE OVERLAP TOL        (T3) 10**   -5
 N. OF ELECTRONS PER CELL    53  EXCHANGE PSEUDO OVP (F(G))  (T4) 10**   -5
 CORE ELECTRONS PER CELL     24  EXCHANGE PSEUDO OVP (P(G))  (T5) 10**  -10
 N. OF SYMMETRY OPERATORS     6  POLE ORDER IN MONO ZONE                  4
 *******************************************************************************
 TYPE OF CALCULATION :  RESTRICTED CLOSED SHELL
 KOHN-SHAM HAMILTONIAN

 (EXCHANGE)[CORRELATION] FUNCTIONAL:(BECKE 88)[LEE-YANG-PARR]

 NON-LOCAL WEIGHTING FACTOR (EXCHANGE) =           0.9000
 NON-LOCAL WEIGHTING FACTOR [CORRELATION] =        0.8100

 HYBRID EXCHANGE - PERCENTAGE OF FOCK EXCHANGE    20.0000

 CAPPA:IS1  6;IS2  6;IS3  1; K PTS MONK NET   7; SYMMOPS:K SPACE  12;G SPACE   6

 *******************************************************************************
 MAX NUMBER OF SCF CYCLES      20  CONVERGENCE ON DELTAP        10**-16
 WEIGHT OF F(I) IN F(I+1)      30% CONVERGENCE ON ENERGY        10**- 6
 SHRINK. FACT.(MONKH.)    6  6  1  NUMBER OF K POINTS IN THE IBZ      7
 SHRINKING FACTOR(GILAT NET)   12  NUMBER OF K POINTS(GILAT NET)     19
 *******************************************************************************
 *** K POINTS COORDINATES (OBLIQUE COORDINATES IN UNITS OF IS =  6)
   1-R(  0  0  0)   2-C(  1  0  0)   3-C(  2  0  0)   4-R(  3  0  0)
   5-C(  1  1  0)   6-C(  2  1  0)   7-C(  2  2  0)

 DIRECT LATTICE VECTORS COMPON. (A.U.)     RECIP. LATTICE VECTORS COMPON. (A.U.) 
        X            Y            Z              X            Y            Z
    2.4194342   -4.1905830    0.0000000      1.2984823   -0.7496791    0.0000000
    2.4194342    4.1905830    0.0000000      1.2984823    0.7496791    0.0000000
    0.0000000    0.0000000  944.8630670      0.0000000    0.0000000    0.0066498

 DISK SPACE FOR EIGENVECTORS (FTN 10)       37632 REALS

 SYMMETRY ADAPTION OF THE BLOCH FUNCTIONS ENABLED
 TTTTTTTTTTTTTTTTTTTTTTTTTTTTTT gordsh1     TELAPSE        0.03 TCPU        0.01

 MATRIX SIZE: P(G)   46704, F(G)   11067, P(G) IRR    5968, F(G) IRR    3233
 MAX G-VECTOR INDEX FOR 1- AND 2-ELECTRON INTEGRALS  85

 TTTTTTTTTTTTTTTTTTTTTTTTTTTTTT INPUT       TELAPSE        0.03 TCPU        0.01

 NEIGHBORS OF THE NON-EQUIVALENT ATOMS

 N = NUMBER OF NEIGHBORS AT DISTANCE R
    ATOM  N     R/ANG      R/AU   NEIGHBORS (ATOM LABELS AND CELL INDICES)
   1 CU   2     1.4784     2.7937    2 XX  -1 0 0    2 XX   0 1 0
   1 CU   1     1.4784     2.7937    2 XX   0 0 0
   1 CU   1     2.0000     3.7795    3 XX   0 0 0
   1 CU   1     2.0000     3.7795    5 O    0 0 0
   1 CU   4     2.4871     4.6999    4 O   -1 0 0    6 O   -1 0 0    4 O    0 1 0
                                     6 O    0 1 0
   1 CU   2     2.4871     4.6999    4 O    0 0 0    6 O    0 0 0

   2 XX   2     1.4784     2.7937    1 CU   1 0 0    1 CU   0-1 0
   2 XX   1     1.4784     2.7937    1 CU   0 0 0
   2 XX   2     2.0000     3.7795    4 O    0 0 0    6 O    0 0 0
   2 XX   1     2.4871     4.6999    3 XX   1 0 0
   2 XX   1     2.4871     4.6999    5 O    1 0 0
   2 XX   1     2.4871     4.6999    3 XX   0-1 0

   3 XX   2     1.4784     2.7937    4 O   -1 0 0    4 O    0 1 0
   3 XX   1     1.4784     2.7937    4 O    0 0 0
   3 XX   1     2.0000     3.7795    1 CU   0 0 0
   3 XX   2     2.4871     4.6999    2 XX  -1 0 0    2 XX   0 1 0
   3 XX   1     2.4871     4.6999    2 XX   0 0 0
   3 XX   6     2.5606     4.8389    3 XX  -1 0 0    3 XX   1 0 0    3 XX   0-1 0
                                     3 XX   0 1 0    3 XX  -1-1 0    3 XX   1 1 0

   4 O    2     1.4784     2.7937    3 XX   1 0 0    3 XX   0-1 0
   4 O    1     1.4784     2.7937    3 XX   0 0 0
   4 O    1     2.0000     3.7795    2 XX   0 0 0
   4 O    2     2.4871     4.6999    1 CU   1 0 0    1 CU   0-1 0
   4 O    1     2.4871     4.6999    1 CU   0 0 0
   4 O    6     2.5606     4.8389    4 O   -1 0 0    4 O    1 0 0    4 O    0-1 0
                                     4 O    0 1 0    4 O   -1-1 0    4 O    1 1 0

   5 O    2     1.4784     2.7937    6 O   -1 0 0    6 O    0 1 0
   5 O    1     1.4784     2.7937    6 O    0 0 0
   5 O    1     2.0000     3.7795    1 CU   0 0 0
   5 O    2     2.4871     4.6999    2 XX  -1 0 0    2 XX   0 1 0
   5 O    1     2.4871     4.6999    2 XX   0 0 0
   5 O    6     2.5606     4.8389    5 O   -1 0 0    5 O    1 0 0    5 O    0-1 0
                                     5 O    0 1 0    5 O   -1-1 0    5 O    1 1 0

   6 O    2     1.4784     2.7937    5 O    1 0 0    5 O    0-1 0
   6 O    1     1.4784     2.7937    5 O    0 0 0
   6 O    1     2.0000     3.7795    2 XX   0 0 0
   6 O    2     2.4871     4.6999    1 CU   1 0 0    1 CU   0-1 0
   6 O    1     2.4871     4.6999    1 CU   0 0 0
   6 O    6     2.5606     4.8389    6 O   -1 0 0    6 O    1 0 0    6 O    0-1 0
                                     6 O    0 1 0    6 O   -1-1 0    6 O    1 1 0


 SYMMETRY ALLOWED INTERNAL DEGREE(S) OF FREEDOM:   5
 WARNING **** CNSTRQ **** UNABLE TO REDUCE REPRESENTATION           2
 TTTTTTTTTTTTTTTTTTTTTTTTTTTTTT SYMM        TELAPSE        0.04 TCPU        0.02
 TTTTTTTTTTTTTTTTTTTTTTTTTTTTTT INT_SCREEN  TELAPSE        0.04 TCPU        0.02
 INFORMATION **** EXCBUF **** EXCH. BIPO BUFFER: WORDS USED =      254430

 DFT PARAMETERS

     ATOM       ELECTRONS   NET CHARGE   R(ANGSTROM)
   1  29  CU     29.0000      0.0000     1.28000000
   2   0  XX      0.0000      0.0000     0.50000000
   4   8  O       8.0000      0.0000     0.74000000

 SIZE OF GRID=     111840
 TTTTTTTTTTTTTTTTTTTTTTTTTTTTTT MAKE_GRID2  TELAPSE        0.86 TCPU        0.84
 BECKE WEIGHT FUNCTION
 RADSAFE =     2.00
 TOLERANCES - DENSITY:10**- 6; POTENTIAL:10**- 9; GRID WGT:10**-14

 RADIAL INTEGRATION  - INTERVALS (POINTS,UPPER LIMIT):            1( 99,  4.0*R)

 ANGULAR INTEGRATION - INTERVALS (ACCURACY LEVEL [N. POINTS] UPPER LIMIT):
  1(  6[ 146]   0.2)  2( 11[ 302]   0.5)  3( 14[ 590]   0.9)  4( 18[1454]   3.5)
  5( 14[ 590]9999.0)

 GHOST ATOMS - REMOVAL OF NUCLEAR CHARGE AND ELECTRONS
 TOTAL NUCLEAR CHARGE        5.300000E+01
 TOTAL ELECTRONIC CHARGE     5.300000E+01
 TTTTTTTTTTTTTTTTTTTTTTTTTTTTTT INT_CALC    TELAPSE        0.86 TCPU        0.84
 EEEEEEEEEE INT_CALC TERMINATION  DATE 15 02 2022 TIME 11:42:37.2

 *******************************************************************************
 Adsorption tests                                                                
 CRYSTAL - SCF - TYPE OF CALCULATION :  RESTRICTED CLOSED SHELL
 *******************************************************************************

 CAPPA:IS1  6;IS2  6;IS3  1; K PTS MONK NET   7; SYMMOPS:K SPACE  12;G SPACE   6

 TTTTTTTTTTTTTTTTTTTTTTTTTTTTTT SDIK        TELAPSE        0.87 TCPU        0.85

 AAAAAAAAAAAAAAAAAAAAAAAAAAAAAAAAAAAAAAAAAAAAAAAAAAAAAAAAAAAAAAAAAAAAAAAAAAAAAAA
         ATOMIC WAVEFUNCTION(S)


 NUCLEAR CHARGE 29.0  SYMMETRY SPECIES            S    P    D
 N. ELECTRONS   29.0  NUMBER OF PRIMITIVE GTOS   12    9    3
                      NUMBER OF CONTRACTED GTOS   4    3    1
                      NUMBER OF CLOSED SHELLS     4    2    0
                      OPEN SHELL OCCUPATION       0    0    9

  ZNUC SCFIT  TOTAL HF ENERGY   KINETIC ENERGY   VIRIAL THEOREM ACCURACY
  29.0   5   -1.619844227E+03  1.626147454E+03 -1.996123828E+00  5.2E-07

 NUCLEAR CHARGE  8.0  SYMMETRY SPECIES            S    P
 N. ELECTRONS    8.0  NUMBER OF PRIMITIVE GTOS    6    3
                      NUMBER OF CONTRACTED GTOS   2    1
                      NUMBER OF CLOSED SHELLS     2    0
                      OPEN SHELL OCCUPATION       0    4

  ZNUC SCFIT  TOTAL HF ENERGY   KINETIC ENERGY   VIRIAL THEOREM ACCURACY
   8.0   1   -7.380415023E+01  7.344495887E+01 -2.004890620E+00  0.0E+00

 AAAAAAAAAAAAAAAAAAAAAAAAAAAAAAAAAAAAAAAAAAAAAAAAAAAAAAAAAAAAAAAAAAAAAAAAAAAAAAA

 CHARGE NORMALIZATION FACTOR   1.00000000
 TOTAL ATOMIC CHARGES:
  29.0000000   0.0000000   0.0000000   8.0000000   8.0000000   8.0000000
 TTTTTTTTTTTTTTTTTTTTTTTTTTTTTT MOQGAD      TELAPSE        0.89 TCPU        0.87
 TTTTTTTTTTTTTTTTTTTTTTTTTTTTTT SHELLXN     TELAPSE       32.93 TCPU       32.90
 TTTTTTTTTTTTTTTTTTTTTTTTTTTTTT MONMO3      TELAPSE       33.01 TCPU       32.97
 NUMERICALLY INTEGRATED DENSITY     52.9999825921
 TTTTTTTTTTTTTTTTTTTTTTTTTTTTTT NUMDFT      TELAPSE       35.19 TCPU       35.15
 CYC   0 ETOT(AU) -1.843362048664E+03 DETOT -1.84E+03 tst  0.00E+00 PX  1.00E+00
 TTTTTTTTTTTTTTTTTTTTTTTTTTTTTT DIIS        TELAPSE       35.19 TCPU       35.15
 TTTTTTTTTTTTTTTTTTTTTTTTTTTTTT FDIK        TELAPSE       35.20 TCPU       35.16
 POSSIBLY CONDUCTING STATE - EFERMI(AU)  3.5289697E-01 (RES. CHARGE  1.70E-10;IT.  8)
 TTTTTTTTTTTTTTTTTTTTTTTTTTTTTT PDIG        TELAPSE       35.20 TCPU       35.16
 CHARGE NORMALIZATION FACTOR   1.00000000
 TOTAL ATOMIC CHARGES:
  21.6357713   2.2085119   0.1393772   9.6686839   9.6463102   9.7013456
 TTTTTTTTTTTTTTTTTTTTTTTTTTTTTT MOQGAD      TELAPSE       35.22 TCPU       35.18
 TTTTTTTTTTTTTTTTTTTTTTTTTTTTTT SHELLXN     TELAPSE       67.99 TCPU       67.92
 TTTTTTTTTTTTTTTTTTTTTTTTTTTTTT MONMO3      TELAPSE       68.07 TCPU       68.00
 NUMERICALLY INTEGRATED DENSITY     52.9999866136
 TTTTTTTTTTTTTTTTTTTTTTTTTTTTTT NUMDFT      TELAPSE       73.92 TCPU       73.85
 CYC   1 ETOT(AU) -1.813237089622E+03 DETOT  3.01E+01 tst  0.00E+00 PX  1.00E+00
 TTTTTTTTTTTTTTTTTTTTTTTTTTTTTT DIIS        TELAPSE       73.92 TCPU       73.85
 DIIS TEST: 0.77232E+01 AT SCF   CYCLE   1 - MIX   30 %
 TTTTTTTTTTTTTTTTTTTTTTTTTTTTTT FDIK        TELAPSE       73.93 TCPU       73.85
 POSSIBLY CONDUCTING STATE - EFERMI(AU) -1.3447814E+00 (RES. CHARGE  1.26E-12;IT. 12)
 TTTTTTTTTTTTTTTTTTTTTTTTTTTTTT PDIG        TELAPSE       73.93 TCPU       73.86
 CHARGE NORMALIZATION FACTOR   0.99999998
 TOTAL ATOMIC CHARGES:
  33.8170987   7.9892273   0.1690456   7.3211954   1.8609343   1.8424987
 TTTTTTTTTTTTTTTTTTTTTTTTTTTTTT MOQGAD      TELAPSE       73.95 TCPU       73.87
 TTTTTTTTTTTTTTTTTTTTTTTTTTTTTT SHELLXN     TELAPSE      106.72 TCPU      106.64
 TTTTTTTTTTTTTTTTTTTTTTTTTTTTTT MONMO3      TELAPSE      106.79 TCPU      106.71
 NUMERICALLY INTEGRATED DENSITY     53.0000379870
 TTTTTTTTTTTTTTTTTTTTTTTTTTTTTT NUMDFT      TELAPSE      112.72 TCPU      112.64
 CYC   2 ETOT(AU) -1.703979949704E+03 DETOT  1.09E+02 tst  1.33E+01 PX  9.29E+01
 TTTTTTTTTTTTTTTTTTTTTTTTTTTTTT DIIS        TELAPSE      112.72 TCPU      112.64
 DIIS TEST: 0.90617E+02 AT SCF   CYCLE   2 - DIIS ACTIVE - HISTORY:     2 CYCLES
 TTTTTTTTTTTTTTTTTTTTTTTTTTTTTT FDIK        TELAPSE      112.73 TCPU      112.65
 POSSIBLY CONDUCTING STATE - EFERMI(AU) -9.5737316E-01 (RES. CHARGE  1.35E-13;IT. 10)
 TTTTTTTTTTTTTTTTTTTTTTTTTTTTTT PDIG        TELAPSE      112.73 TCPU      112.65
 CHARGE NORMALIZATION FACTOR   0.99999996
 TOTAL ATOMIC CHARGES:
  34.7237142   8.2732929  -0.2270948   2.3810354   3.9869282   3.8621241
 TTTTTTTTTTTTTTTTTTTTTTTTTTTTTT MOQGAD      TELAPSE      112.75 TCPU      112.67
 TTTTTTTTTTTTTTTTTTTTTTTTTTTTTT SHELLXN     TELAPSE      145.62 TCPU      145.53
 TTTTTTTTTTTTTTTTTTTTTTTTTTTTTT MONMO3      TELAPSE      145.69 TCPU      145.60
 NUMERICALLY INTEGRATED DENSITY     53.0015519634
 TTTTTTTTTTTTTTTTTTTTTTTTTTTTTT NUMDFT      TELAPSE      151.62 TCPU      151.53
 CYC   3 ETOT(AU) -1.799366385119E+03 DETOT -9.54E+01 tst  3.17E+00 PX  1.26E+02
 TTTTTTTTTTTTTTTTTTTTTTTTTTTTTT DIIS        TELAPSE      151.62 TCPU      151.54
 DIIS TEST: 0.48237E+02 AT SCF   CYCLE   3 - DIIS ACTIVE - HISTORY:     3 CYCLES
 TTTTTTTTTTTTTTTTTTTTTTTTTTTTTT FDIK        TELAPSE      151.63 TCPU      151.54
 POSSIBLY CONDUCTING STATE - EFERMI(AU) -5.9183744E-01 (RES. CHARGE  7.11E-15;IT. 10)
 TTTTTTTTTTTTTTTTTTTTTTTTTTTTTT PDIG        TELAPSE      151.63 TCPU      151.54
 CHARGE NORMALIZATION FACTOR   0.99999997
 TOTAL ATOMIC CHARGES:
  34.1920093   5.4884433  -0.1528226   2.3814988   5.8561209   5.2347503
 TTTTTTTTTTTTTTTTTTTTTTTTTTTTTT MOQGAD      TELAPSE      151.65 TCPU      151.56
 TTTTTTTTTTTTTTTTTTTTTTTTTTTTTT SHELLXN     TELAPSE      184.54 TCPU      184.45
 TTTTTTTTTTTTTTTTTTTTTTTTTTTTTT MONMO3      TELAPSE      184.62 TCPU      184.52
 NUMERICALLY INTEGRATED DENSITY     52.9996147720
 TTTTTTTTTTTTTTTTTTTTTTTTTTTTTT NUMDFT      TELAPSE      190.56 TCPU      190.47
 CYC   4 ETOT(AU) -1.738753833818E+03 DETOT  6.06E+01 tst  3.05E+01 PX  7.12E+01
 TTTTTTTTTTTTTTTTTTTTTTTTTTTTTT DIIS        TELAPSE      190.56 TCPU      190.47
 DIIS TEST: 0.11540E+02 AT SCF   CYCLE   4 - DIIS ACTIVE - HISTORY:     4 CYCLES
 TTTTTTTTTTTTTTTTTTTTTTTTTTTTTT FDIK        TELAPSE      190.57 TCPU      190.47
 POSSIBLY CONDUCTING STATE - EFERMI(AU)  3.3776637E-01 (RES. CHARGE  4.26E-12;IT. 10)
 TTTTTTTTTTTTTTTTTTTTTTTTTTTTTT PDIG        TELAPSE      190.57 TCPU      190.48
 CHARGE NORMALIZATION FACTOR   0.99999995
 TOTAL ATOMIC CHARGES:
  29.4750084   1.7564083   0.0619412   9.9400442   6.0038341   5.7627639
 TTTTTTTTTTTTTTTTTTTTTTTTTTTTTT MOQGAD      TELAPSE      190.59 TCPU      190.49
 TTTTTTTTTTTTTTTTTTTTTTTTTTTTTT SHELLXN     TELAPSE      223.40 TCPU      223.30
 TTTTTTTTTTTTTTTTTTTTTTTTTTTTTT MONMO3      TELAPSE      223.47 TCPU      223.37
 NUMERICALLY INTEGRATED DENSITY     52.9989410197
 TTTTTTTTTTTTTTTTTTTTTTTTTTTTTT NUMDFT      TELAPSE      229.41 TCPU      229.31
 CYC   5 ETOT(AU) -1.839318469768E+03 DETOT -1.01E+02 tst  1.97E+01 PX  1.14E+02
 TTTTTTTTTTTTTTTTTTTTTTTTTTTTTT DIIS        TELAPSE      229.41 TCPU      229.31
 DIIS TEST: 0.92501E+02 AT SCF   CYCLE   5 - DIIS ACTIVE - HISTORY:     5 CYCLES
 TTTTTTTTTTTTTTTTTTTTTTTTTTTTTT FDIK        TELAPSE      229.42 TCPU      229.31
 POSSIBLY CONDUCTING STATE - EFERMI(AU)  1.3065740E-01 (RES. CHARGE  8.06E-06;IT. 30)
 TTTTTTTTTTTTTTTTTTTTTTTTTTTTTT PDIG        TELAPSE      229.42 TCPU      229.32
 CHARGE NORMALIZATION FACTOR   1.00000025
 TOTAL ATOMIC CHARGES:
  29.4281178   1.6284289   0.0649860   9.8654165   6.1135813   5.8994694
 TTTTTTTTTTTTTTTTTTTTTTTTTTTTTT MOQGAD      TELAPSE      229.44 TCPU      229.33
 TTTTTTTTTTTTTTTTTTTTTTTTTTTTTT SHELLXN     TELAPSE      262.28 TCPU      262.17
 TTTTTTTTTTTTTTTTTTTTTTTTTTTTTT MONMO3      TELAPSE      262.36 TCPU      262.25
 NUMERICALLY INTEGRATED DENSITY     52.9989493979
 TTTTTTTTTTTTTTTTTTTTTTTTTTTTTT NUMDFT      TELAPSE      268.31 TCPU      268.20
 CYC   6 ETOT(AU) -1.841996098392E+03 DETOT -2.68E+00 tst  1.65E-02 PX  8.65E-01
 TTTTTTTTTTTTTTTTTTTTTTTTTTTTTT DIIS        TELAPSE      268.32 TCPU      268.20
 DIIS TEST: 0.23158E+02 AT SCF   CYCLE   6 - DIIS ACTIVE - HISTORY:     6 CYCLES
 TTTTTTTTTTTTTTTTTTTTTTTTTTTTTT FDIK        TELAPSE      268.32 TCPU      268.21
 POSSIBLY CONDUCTING STATE - EFERMI(AU) -6.0026976E-02 (RES. CHARGE  1.07E-12;IT.  8)
 TTTTTTTTTTTTTTTTTTTTTTTTTTTTTT PDIG        TELAPSE      268.32 TCPU      268.21
 CHARGE NORMALIZATION FACTOR   0.99999995
 TOTAL ATOMIC CHARGES:
  29.4451531   1.7103039  -0.0239975   3.8913177   8.9448585   9.0323643
 TTTTTTTTTTTTTTTTTTTTTTTTTTTTTT MOQGAD      TELAPSE      268.34 TCPU      268.23
 TTTTTTTTTTTTTTTTTTTTTTTTTTTTTT SHELLXN     TELAPSE      301.24 TCPU      301.13
 TTTTTTTTTTTTTTTTTTTTTTTTTTTTTT MONMO3      TELAPSE      301.32 TCPU      301.20
 NUMERICALLY INTEGRATED DENSITY     52.9990051493
 TTTTTTTTTTTTTTTTTTTTTTTTTTTTTT NUMDFT      TELAPSE      307.26 TCPU      307.14
 CYC   7 ETOT(AU) -1.833903384954E+03 DETOT  8.09E+00 tst  1.48E-01 PX  8.06E+00
 TTTTTTTTTTTTTTTTTTTTTTTTTTTTTT DIIS        TELAPSE      307.27 TCPU      307.15
 DIIS TEST: 0.12530E+02 AT SCF   CYCLE   7 - DIIS ACTIVE - HISTORY:     7 CYCLES
 TTTTTTTTTTTTTTTTTTTTTTTTTTTTTT FDIK        TELAPSE      307.27 TCPU      307.15
 POSSIBLY CONDUCTING STATE - EFERMI(AU)  4.2567778E-01 (RES. CHARGE  2.87E-11;IT. 12)
 TTTTTTTTTTTTTTTTTTTTTTTTTTTTTT PDIG        TELAPSE      307.27 TCPU      307.15
 CHARGE NORMALIZATION FACTOR   0.99999992
 TOTAL ATOMIC CHARGES:
  29.7888939   2.5535681   0.8022996   9.9987538   4.9504871   4.9059976
 TTTTTTTTTTTTTTTTTTTTTTTTTTTTTT MOQGAD      TELAPSE      307.29 TCPU      307.17
 TTTTTTTTTTTTTTTTTTTTTTTTTTTTTT SHELLXN     TELAPSE     2342.61 TCPU      340.08
 TTTTTTTTTTTTTTTTTTTTTTTTTTTTTT MONMO3      TELAPSE     2342.69 TCPU      340.15
 NUMERICALLY INTEGRATED DENSITY     53.0010845189
 TTTTTTTTTTTTTTTTTTTTTTTTTTTTTT NUMDFT      TELAPSE     3398.99 TCPU      346.02
 CYC   8 ETOT(AU) -1.651128503022E+03 DETOT  1.83E+02 tst  3.70E-01 PX  6.28E+01
 TTTTTTTTTTTTTTTTTTTTTTTTTTTTTT DIIS        TELAPSE     3399.00 TCPU      346.02
 DIIS TEST: 0.25901E+03 AT SCF   CYCLE   8 - DIIS ACTIVE - HISTORY:     8 CYCLES
 TTTTTTTTTTTTTTTTTTTTTTTTTTTTTT FDIK        TELAPSE     3399.00 TCPU      346.03
 POSSIBLY CONDUCTING STATE - EFERMI(AU)  3.8480152E-01 (RES. CHARGE  2.41E-11;IT. 10)
 TTTTTTTTTTTTTTTTTTTTTTTTTTTTTT PDIG        TELAPSE     3399.00 TCPU      346.03
 CHARGE NORMALIZATION FACTOR   0.99999992
 TOTAL ATOMIC CHARGES:
  29.7776189   2.5372632   0.4212504   9.9730676   5.1776615   5.1131384
 TTTTTTTTTTTTTTTTTTTTTTTTTTTTTT MOQGAD      TELAPSE     3399.02 TCPU      346.05
 TTTTTTTTTTTTTTTTTTTTTTTTTTTTTT SHELLXN     TELAPSE     6231.77 TCPU      378.71
 TTTTTTTTTTTTTTTTTTTTTTTTTTTTTT MONMO3      TELAPSE     6231.84 TCPU      378.79
 NUMERICALLY INTEGRATED DENSITY     53.0010436587
 TTTTTTTTTTTTTTTTTTTTTTTTTTTTTT NUMDFT      TELAPSE     6237.69 TCPU      384.63
 CYC   9 ETOT(AU) -1.659488347580E+03 DETOT -8.36E+00 tst  4.33E-02 PX  1.36E+00
 TTTTTTTTTTTTTTTTTTTTTTTTTTTTTT DIIS        TELAPSE     6237.69 TCPU      384.64
 DIIS TEST: 0.14131E+03 AT SCF   CYCLE   9 - DIIS ACTIVE - HISTORY:     9 CYCLES
 TTTTTTTTTTTTTTTTTTTTTTTTTTTTTT FDIK        TELAPSE     6237.69 TCPU      384.64
 POSSIBLY CONDUCTING STATE - EFERMI(AU)  4.0268995E-01 (RES. CHARGE  9.71E-12;IT. 12)
 TTTTTTTTTTTTTTTTTTTTTTTTTTTTTT PDIG        TELAPSE     6237.70 TCPU      384.64
 CHARGE NORMALIZATION FACTOR   0.99999992
 TOTAL ATOMIC CHARGES:
  29.7755252   2.5527973   0.5785664   9.9851732   5.0787084   5.0292296
 TTTTTTTTTTTTTTTTTTTTTTTTTTTTTT MOQGAD      TELAPSE     6237.71 TCPU      384.66
 TTTTTTTTTTTTTTTTTTTTTTTTTTTTTT SHELLXN     TELAPSE     6914.67 TCPU      417.45
 TTTTTTTTTTTTTTTTTTTTTTTTTTTTTT MONMO3      TELAPSE     6914.75 TCPU      417.52
 NUMERICALLY INTEGRATED DENSITY     53.0010985607
 TTTTTTTTTTTTTTTTTTTTTTTTTTTTTT NUMDFT      TELAPSE     6920.63 TCPU      423.40
 CYC  10 ETOT(AU) -1.656464342947E+03 DETOT  3.02E+00 tst  8.70E-03 PX  1.74E+00
 TTTTTTTTTTTTTTTTTTTTTTTTTTTTTT DIIS        TELAPSE     6920.63 TCPU      423.40
 DIIS TEST: 0.10636E+03 AT SCF   CYCLE  10 - DIIS ACTIVE - HISTORY:    10 CYCLES
 TTTTTTTTTTTTTTTTTTTTTTTTTTTTTT FDIK        TELAPSE     6920.64 TCPU      423.41
 POSSIBLY CONDUCTING STATE - EFERMI(AU)  4.0301609E-01 (RES. CHARGE  2.32E-12;IT. 10)
 TTTTTTTTTTTTTTTTTTTTTTTTTTTTTT PDIG        TELAPSE     6920.64 TCPU      423.41
 CHARGE NORMALIZATION FACTOR   0.99999992
 TOTAL ATOMIC CHARGES:
  29.9318170   2.5720361   0.5963021   9.9875709   4.9870438   4.9252302
 TTTTTTTTTTTTTTTTTTTTTTTTTTTTTT MOQGAD      TELAPSE     6920.66 TCPU      423.43
 TTTTTTTTTTTTTTTTTTTTTTTTTTTTTT SHELLXN     TELAPSE     6953.40 TCPU      456.16
 TTTTTTTTTTTTTTTTTTTTTTTTTTTTTT MONMO3      TELAPSE     6953.48 TCPU      456.23
 NUMERICALLY INTEGRATED DENSITY     53.0013299459
 TTTTTTTTTTTTTTTTTTTTTTTTTTTTTT NUMDFT      TELAPSE     6959.35 TCPU      462.10
 CYC  11 ETOT(AU) -1.656834567028E+03 DETOT -3.70E-01 tst  9.62E-02 PX  6.85E+00
 TTTTTTTTTTTTTTTTTTTTTTTTTTTTTT DIIS        TELAPSE     6959.35 TCPU      462.10
 DIIS TEST: 0.11293E+03 AT SCF   CYCLE  11 - DIIS ACTIVE - HISTORY:    11 CYCLES
 TTTTTTTTTTTTTTTTTTTTTTTTTTTTTT FDIK        TELAPSE     6959.35 TCPU      462.11
 POSSIBLY CONDUCTING STATE - EFERMI(AU)  2.7655951E-01 (RES. CHARGE  4.21E-11;IT. 12)
 TTTTTTTTTTTTTTTTTTTTTTTTTTTTTT PDIG        TELAPSE     6959.36 TCPU      462.11
 CHARGE NORMALIZATION FACTOR   0.99999993
 TOTAL ATOMIC CHARGES:
  22.8116361   1.9048172   0.0599175   9.7930954   9.1873396   9.2431941
 TTTTTTTTTTTTTTTTTTTTTTTTTTTTTT MOQGAD      TELAPSE     6959.37 TCPU      462.13
 TTTTTTTTTTTTTTTTTTTTTTTTTTTTTT SHELLXN     TELAPSE     6992.06 TCPU      494.80
 TTTTTTTTTTTTTTTTTTTTTTTTTTTTTT MONMO3      TELAPSE     6992.13 TCPU      494.88
 NUMERICALLY INTEGRATED DENSITY     53.0023131158
 TTTTTTTTTTTTTTTTTTTTTTTTTTTTTT NUMDFT      TELAPSE     6998.06 TCPU      500.80
 CYC  12 ETOT(AU) -1.719128945249E+03 DETOT -6.23E+01 tst  2.89E+00 PX  3.11E+01
 TTTTTTTTTTTTTTTTTTTTTTTTTTTTTT DIIS        TELAPSE     6998.06 TCPU      500.80
 DIIS TEST: 0.14689E+02 AT SCF   CYCLE  12 - DIIS ACTIVE - HISTORY:    12 CYCLES
 TTTTTTTTTTTTTTTTTTTTTTTTTTTTTT FDIK        TELAPSE     6998.06 TCPU      500.80
 POSSIBLY CONDUCTING STATE - EFERMI(AU)  1.2776073E-01 (RES. CHARGE  5.68E-14;IT. 10)
 TTTTTTTTTTTTTTTTTTTTTTTTTTTTTT PDIG        TELAPSE     6998.07 TCPU      500.81
 CHARGE NORMALIZATION FACTOR   0.99999995
 TOTAL ATOMIC CHARGES:
  27.8265820   1.3967710   0.0468794   6.2460498   8.7248469   8.7588708
 TTTTTTTTTTTTTTTTTTTTTTTTTTTTTT MOQGAD      TELAPSE     6998.08 TCPU      500.82
 TTTTTTTTTTTTTTTTTTTTTTTTTTTTTT SHELLXN     TELAPSE     7030.86 TCPU      533.60
 TTTTTTTTTTTTTTTTTTTTTTTTTTTTTT MONMO3      TELAPSE     7030.94 TCPU      533.67
 NUMERICALLY INTEGRATED DENSITY     53.0016169820
 TTTTTTTTTTTTTTTTTTTTTTTTTTTTTT NUMDFT      TELAPSE     7036.82 TCPU      539.55
 CYC  13 ETOT(AU) -1.900664893257E+03 DETOT -1.82E+02 tst  8.07E+00 PX  1.02E+02
 TTTTTTTTTTTTTTTTTTTTTTTTTTTTTT DIIS        TELAPSE     7036.82 TCPU      539.55
 DIIS TEST: 0.25038E+02 AT SCF   CYCLE  13 - DIIS ACTIVE - HISTORY:    13 CYCLES
 TTTTTTTTTTTTTTTTTTTTTTTTTTTTTT FDIK        TELAPSE     7036.83 TCPU      539.56
 POSSIBLY CONDUCTING STATE - EFERMI(AU) -4.9490496E-02 (RES. CHARGE  1.12E-11;IT.  8)
 TTTTTTTTTTTTTTTTTTTTTTTTTTTTTT PDIG        TELAPSE     7036.83 TCPU      539.56
 CHARGE NORMALIZATION FACTOR   0.99999997
 TOTAL ATOMIC CHARGES:
  28.3051089   1.9229913   0.0681307   8.2819326   7.2235871   7.1982494
 TTTTTTTTTTTTTTTTTTTTTTTTTTTTTT MOQGAD      TELAPSE     7036.85 TCPU      539.58
 TTTTTTTTTTTTTTTTTTTTTTTTTTTTTT SHELLXN     TELAPSE     7069.53 TCPU      572.25
 TTTTTTTTTTTTTTTTTTTTTTTTTTTTTT MONMO3      TELAPSE     7069.60 TCPU      572.33
 NUMERICALLY INTEGRATED DENSITY     52.9997501895
 TTTTTTTTTTTTTTTTTTTTTTTTTTTTTT NUMDFT      TELAPSE     7075.55 TCPU      578.27
 CYC  14 ETOT(AU) -1.778488159122E+03 DETOT  1.22E+02 tst  2.53E+00 PX  7.29E+01
 TTTTTTTTTTTTTTTTTTTTTTTTTTTTTT DIIS        TELAPSE     7075.55 TCPU      578.27
 DIIS TEST: 0.10363E+02 AT SCF   CYCLE  14 - DIIS ACTIVE - HISTORY:    14 CYCLES
 TTTTTTTTTTTTTTTTTTTTTTTTTTTTTT FDIK        TELAPSE     7075.55 TCPU      578.28
 POSSIBLY CONDUCTING STATE - EFERMI(AU) -6.9632391E-02 (RES. CHARGE  7.53E-10;IT.  8)
 TTTTTTTTTTTTTTTTTTTTTTTTTTTTTT PDIG        TELAPSE     7075.56 TCPU      578.28
 CHARGE NORMALIZATION FACTOR   0.99999996
 TOTAL ATOMIC CHARGES:
  29.9180351   1.7717775   0.0883228   9.5150993   6.0061901   5.7005751
 TTTTTTTTTTTTTTTTTTTTTTTTTTTTTT MOQGAD      TELAPSE     7075.57 TCPU      578.30
 TTTTTTTTTTTTTTTTTTTTTTTTTTTTTT SHELLXN     TELAPSE     7108.38 TCPU      611.09
 TTTTTTTTTTTTTTTTTTTTTTTTTTTTTT MONMO3      TELAPSE     7108.45 TCPU      611.17
 NUMERICALLY INTEGRATED DENSITY     52.9997165881
 TTTTTTTTTTTTTTTTTTTTTTTTTTTTTT NUMDFT      TELAPSE     7114.37 TCPU      617.09
 CYC  15 ETOT(AU) -1.741690292734E+03 DETOT  3.68E+01 tst  1.24E+00 PX  3.44E+01
 TTTTTTTTTTTTTTTTTTTTTTTTTTTTTT DIIS        TELAPSE     7114.38 TCPU      617.09
 DIIS TEST: 0.90422E+02 AT SCF   CYCLE  15 - DIIS ACTIVE - HISTORY:    15 CYCLES
 TTTTTTTTTTTTTTTTTTTTTTTTTTTTTT FDIK        TELAPSE     7114.38 TCPU      617.09
 POSSIBLY CONDUCTING STATE - EFERMI(AU) -8.8784717E-02 (RES. CHARGE  2.59E-13;IT.  8)
 TTTTTTTTTTTTTTTTTTTTTTTTTTTTTT PDIG        TELAPSE     7114.38 TCPU      617.10
 CHARGE NORMALIZATION FACTOR   0.99999996
 TOTAL ATOMIC CHARGES:
  29.9464147   1.8149247   0.0896658   9.4036965   6.0047588   5.7405395
 TTTTTTTTTTTTTTTTTTTTTTTTTTTTTT MOQGAD      TELAPSE     7114.40 TCPU      617.11
 TTTTTTTTTTTTTTTTTTTTTTTTTTTTTT SHELLXN     TELAPSE     7147.41 TCPU      650.11
 TTTTTTTTTTTTTTTTTTTTTTTTTTTTTT MONMO3      TELAPSE     7147.48 TCPU      650.18
 NUMERICALLY INTEGRATED DENSITY     52.9997204614
 TTTTTTTTTTTTTTTTTTTTTTTTTTTTTT NUMDFT      TELAPSE     7153.40 TCPU      656.10
 CYC  16 ETOT(AU) -1.752267975091E+03 DETOT -1.06E+01 tst  1.80E-01 PX  1.46E+01
 TTTTTTTTTTTTTTTTTTTTTTTTTTTTTT DIIS        TELAPSE     7153.41 TCPU      656.11
 DIIS TEST: 0.87871E+02 AT SCF   CYCLE  16 - DIIS ACTIVE - HISTORY:    16 CYCLES
 TTTTTTTTTTTTTTTTTTTTTTTTTTTTTT FDIK        TELAPSE     7153.41 TCPU      656.11
 POSSIBLY CONDUCTING STATE - EFERMI(AU) -1.1428662E-01 (RES. CHARGE  1.04E-10;IT. 10)
 TTTTTTTTTTTTTTTTTTTTTTTTTTTTTT PDIG        TELAPSE     7153.42 TCPU      656.11
 CHARGE NORMALIZATION FACTOR   0.99999995
 TOTAL ATOMIC CHARGES:
  29.8804443   2.0460427   0.0845904   9.3948422   5.9411243   5.6529562
 TTTTTTTTTTTTTTTTTTTTTTTTTTTTTT MOQGAD      TELAPSE     7153.43 TCPU      656.13
 TTTTTTTTTTTTTTTTTTTTTTTTTTTTTT SHELLXN     TELAPSE     7186.39 TCPU      689.08
 TTTTTTTTTTTTTTTTTTTTTTTTTTTTTT MONMO3      TELAPSE     7186.46 TCPU      689.15
 NUMERICALLY INTEGRATED DENSITY     52.9995915830
 TTTTTTTTTTTTTTTTTTTTTTTTTTTTTT NUMDFT      TELAPSE     7192.43 TCPU      695.11
 CYC  17 ETOT(AU) -1.758289741999E+03 DETOT -6.02E+00 tst  2.34E-01 PX  2.19E+01
 TTTTTTTTTTTTTTTTTTTTTTTTTTTTTT DIIS        TELAPSE     7192.43 TCPU      695.12
 DIIS TEST: 0.93665E+02 AT SCF   CYCLE  17 - DIIS ACTIVE - HISTORY:    17 CYCLES
 TTTTTTTTTTTTTTTTTTTTTTTTTTTTTT FDIK        TELAPSE     7192.43 TCPU      695.12
 POSSIBLY CONDUCTING STATE - EFERMI(AU) -1.1423787E-01 (RES. CHARGE  7.09E-10;IT. 10)
 TTTTTTTTTTTTTTTTTTTTTTTTTTTTTT PDIG        TELAPSE     7192.44 TCPU      695.12
 CHARGE NORMALIZATION FACTOR   0.99999995
 TOTAL ATOMIC CHARGES:
  29.8921284   2.0280191   0.0819704   9.3552074   5.9566558   5.6860189
 TTTTTTTTTTTTTTTTTTTTTTTTTTTTTT MOQGAD      TELAPSE     7192.45 TCPU      695.14
 TTTTTTTTTTTTTTTTTTTTTTTTTTTTTT SHELLXN     TELAPSE     7225.34 TCPU      728.02
 TTTTTTTTTTTTTTTTTTTTTTTTTTTTTT MONMO3      TELAPSE     7225.41 TCPU      728.09
 NUMERICALLY INTEGRATED DENSITY     52.9996355676
 TTTTTTTTTTTTTTTTTTTTTTTTTTTTTT NUMDFT      TELAPSE     7231.36 TCPU      734.04
 CYC  18 ETOT(AU) -1.756957555703E+03 DETOT  1.33E+00 tst  8.45E-03 PX  2.49E+00
 TTTTTTTTTTTTTTTTTTTTTTTTTTTTTT DIIS        TELAPSE     7231.36 TCPU      734.04
 DIIS TEST: 0.91035E+02 AT SCF   CYCLE  18 - DIIS ACTIVE - HISTORY:    18 CYCLES
 TTTTTTTTTTTTTTTTTTTTTTTTTTTTTT FDIK        TELAPSE     7231.36 TCPU      734.04
 POSSIBLY CONDUCTING STATE - EFERMI(AU) -1.2352174E-01 (RES. CHARGE  7.11E-15;IT. 10)
 TTTTTTTTTTTTTTTTTTTTTTTTTTTTTT PDIG        TELAPSE     7231.37 TCPU      734.05
 CHARGE NORMALIZATION FACTOR   0.99999996
 TOTAL ATOMIC CHARGES:
  30.0188561   2.0271652   0.0744000   9.3588171   5.8764246   5.6443371
 TTTTTTTTTTTTTTTTTTTTTTTTTTTTTT MOQGAD      TELAPSE     7231.38 TCPU      734.06
 TTTTTTTTTTTTTTTTTTTTTTTTTTTTTT SHELLXN     TELAPSE     7264.41 TCPU      767.06
 TTTTTTTTTTTTTTTTTTTTTTTTTTTTTT MONMO3      TELAPSE     7264.48 TCPU      767.13
 NUMERICALLY INTEGRATED DENSITY     52.9996029970
 TTTTTTTTTTTTTTTTTTTTTTTTTTTTTT NUMDFT      TELAPSE     7270.42 TCPU      773.07
 CYC  19 ETOT(AU) -1.748245559120E+03 DETOT  8.71E+00 tst  1.04E-01 PX  1.19E+01
 TTTTTTTTTTTTTTTTTTTTTTTTTTTTTT DIIS        TELAPSE     7270.42 TCPU      773.07
 DIIS TEST: 0.92861E+02 AT SCF   CYCLE  19 - DIIS ACTIVE - HISTORY:    19 CYCLES
 TTTTTTTTTTTTTTTTTTTTTTTTTTTTTT FDIK        TELAPSE     7270.42 TCPU      773.07
 POSSIBLY CONDUCTING STATE - EFERMI(AU) -1.1267354E-01 (RES. CHARGE  7.66E-11;IT. 12)
 TTTTTTTTTTTTTTTTTTTTTTTTTTTTTT PDIG        TELAPSE     7270.43 TCPU      773.08
 CHARGE NORMALIZATION FACTOR   0.99999997
 TOTAL ATOMIC CHARGES:
  29.9417089   1.9936463   0.0864618   9.3882799   5.8509493   5.7389538
 TTTTTTTTTTTTTTTTTTTTTTTTTTTTTT MOQGAD      TELAPSE     7270.44 TCPU      773.09
 TTTTTTTTTTTTTTTTTTTTTTTTTTTTTT SHELLXN     TELAPSE     7303.27 TCPU      805.92

 ::: DIPOLE MOMENT ALONG NON PERIODIC DIRECTIONS:
 ::: A.U.     (Z) -2.24921E+01
 ::: DEBYE         5.71693E+01

 +++ ENERGIES IN A.U. +++
 ::: EXT EL-POLE                                  -3.6588867628928E+03
 ::: EXT EL-SPHEROPOLE                             0.0000000000000E+00
 ::: BIELET ZONE E-E                               3.0278069900899E+03
 ::: TOTAL E-E                                    -6.3107977280289E+02
 ::: TOTAL E-N + N-E                              -1.3021241071939E+03
 ::: TOTAL N-N                                    -1.5849882425146E+03
 ::: KINETIC ENERGY                                1.8539326883905E+03
 ::: PSEUDO TOTAL   ENERGY                        -1.6642594341209E+03
 ::: VIRIAL COEFFICIENT                            1.0539121365931E+00
 TTTTTTTTTTTTTTTTTTTTTTTTTTTTTT MONMO3      TELAPSE     7303.35 TCPU      805.99
 NUMERICALLY INTEGRATED DENSITY     52.9996543977
 TTTTTTTTTTTTTTTTTTTTTTTTTTTTTT NUMDFT      TELAPSE     7309.28 TCPU      811.93
 CYC  20 ETOT(AU) -1.739772630654E+03 DETOT  8.47E+00 tst  4.81E+00 PX  1.19E+01

 == SCF ENDED - TOO MANY CYCLES            E(AU) -1.7397726306539E+03 CYCLES  20


 ENERGY EXPRESSION=HARTREE+FOCK EXCH*0.20000+(BECKE      EXCH)*0.80000+LYP        CORR


 TOTAL ENERGY(DFT)(AU)( 20) -1.7397726306539E+03 DE 8.5E+00 tester 4.8E+00
 TTTTTTTTTTTTTTTTTTTTTTTTTTTTTT EDFT        TELAPSE     7309.29 TCPU      811.93
 EIGENVECTORS IN FORTRAN UNIT  8
 TTTTTTTTTTTTTTTTTTTTTTTTTTTTTT END         TELAPSE     7309.30 TCPU      811.94
 EEEEEEEEEE TERMINATION  DATE 15 02 2022 TIME 13:44:25.6
Tue 15 Feb 2022 13:44:25 GMT
Contents of temporary directory:
total 4816
-rw-r--r--  1 brunocamino  admin  517440 15 Feb 13:43 diis_Fg
-rw-r--r--  1 brunocamino  admin  226080 15 Feb 13:43 diis_Fia1
-rw-r--r--  1 brunocamino  admin  238640 15 Feb 13:43 diis_Fia2
-rw-r--r--  1 brunocamino  admin       0 15 Feb 11:42 diis_Sk
-rw-r--r--  1 brunocamino  admin  208648 15 Feb 13:43 fort.10
-rw-r--r--  1 brunocamino  admin   25872 15 Feb 13:43 fort.11
-rw-r--r--  1 brunocamino  admin    3543 15 Feb 11:42 fort.34
-rw-r--r--  1 brunocamino  admin   17280 15 Feb 11:42 fort.61
-rw-r--r--  1 brunocamino  admin    9776 15 Feb 11:42 fort.62
-rw-r--r--  1 brunocamino  admin  208648 15 Feb 13:43 fort.8
-rw-r--r--  1 brunocamino  admin  200196 15 Feb 13:44 fort.9
-rw-r--r--  1 brunocamino  admin   54568 15 Feb 13:43 fort.95
-rw-r--r--  1 brunocamino  admin  514951 15 Feb 13:44 fort.98
wave function binary file /Users/brunocamino/Desktop/Imperial/cmsg_icl/ml-surface-adsorption/data/Cu_O_100_1_BSSE_sub.f9
file fort.98 saved as /Users/brunocamino/Desktop/Imperial/cmsg_icl/ml-surface-adsorption/data/Cu_O_100_1_BSSE_sub.f98
geometry input file fort.34 saved as /Users/brunocamino/Desktop/Imperial/cmsg_icl/ml-surface-adsorption/data/Cu_O_100_1_BSSE_sub.gui
temporary directory /Users/brunocamino/crystal/tmp removed
