date Tue 15 Feb 2022 16:56:08 GMT
hostname MacBook-Pro-3.local
system Darwin MacBook-Pro-3.local 21.3.0 Darwin Kernel Version 21.3.0: Wed Jan 5 21:37:58 PST 2022; root:xnu-8019.80.24~20/RELEASE_ARM64_T8101 arm64
user brunocamino
output data in /Users/brunocamino/Desktop/Imperial/cmsg_icl/ml-surface-adsorption/data/Cu_O_100_6_BSSE_sub.out
crystal executable in /Users/brunocamino/crystal
input data in /Users/brunocamino/Desktop/Imperial/cmsg_icl/ml-surface-adsorption/data/Cu_O_100_6_BSSE_sub.d12
temporary directory /Users/brunocamino/crystal/tmp
external geometry input from /Users/brunocamino/Desktop/Imperial/cmsg_icl/ml-surface-adsorption/data/Cu_O_100_6_BSSE_sub.gui
external geometry input saved in /Users/brunocamino/Desktop/Imperial/cmsg_icl/ml-surface-adsorption/data/Cu_O_100_6_BSSE_sub_inp.gui
Adsorption tests
EXTERNAL
EXTPRT
BASISSET
STO-3G
GHOSTS
2
3 4
DFT
B3LYP
XXLGRID
ENDDFT
TOLINTEG
5 5 5 5 10
SHRINK
6 12
MAXCYCLE
20
ENDSCF

         
 *******************************************************************************
 *                                                                             *
 *                               CRYSTAL17                                     *
 *                      public : 1.0.2 - March 1st, 2018                       *
 *                       HTTP://WWW.CRYSTAL.UNITO.IT                           *
 *                                                                             *
 *                              MAIN AUTHORS                                   *
 *                                                                             *
 *  R. DOVESI(1,11), V.R. SAUNDERS(2), C. ROETTI(1,11), R. ORLANDO(1,11),      *
 *  C.M. ZICOVICH-WILSON(1,3), F. PASCALE(4), B. CIVALLERI(1,11),              *
 *  K. DOLL(5), N.M. HARRISON(2,6), I.J. BUSH(7), Ph. D'ARCO(8),               *
 *  M. LLUNELL(9), M. CAUSA'(10), Y. NOEL(8), L. MASCHIO(1,11), A. ERBA(1,11)  *
 *  M. RE'RAT(14), S. CASASSA(1,11)                                            *
 *                                                                             *
 *        CONTRIBUTIONS TO THE CODE HAVE ALSO BEEN GIVEN BY                    *
 *                                                                             *
 *  M. FERRABONE(1,11), M. DE LA PIERRE(1,11), M. FERRERO(1,11),               *
 *  J. BAIMA(1,11), E. ALBANESE(1,11), M.F. PEINTINGER(12), R. BAST(13),       *
 *  B. KIRTMAN(15), V. LACIVITA(1,11), R. DEMICHELIS(1,16)                     *
 *  G. BRANDEBURG(17), S. SALUSTRO(1,11), G. SANSONE(1,11)                     *
 *  M.T. RUGGIERO(18)                                                          *
 *                                                                             *
 * (1) THEORETICAL CHEMISTRY GROUP - UNIVERSITA' DI TORINO - TORINO (ITALY)    *
 * (2) COMPUTATIONAL SCIENCE & ENGINEERING DEPARTMENT - STFC DARESBURY (UK)    *
 * (3) UNIVERSIDAD AUTONOMA DEL ESTADO DE MORELOS - CUERNAVACA (MEXICO)        *
 * (4) UNIVERSITE' DE LORRAINE - NANCY (FRANCE)                                *
 * (5) UNIVERSITAET STUTTGART- STUTTGART (GERMANY)                             *
 * (6) IMPERIAL COLLEGE - LONDON (UK)                                          *
 * (7) OXFORD E-RESEARCH CENTRE - OXFORD (UK)                                  *
 * (8) UPMC - SORBONNE UNIVERSITES - PARIS (FRANCE)                            *
 * (9) UNIVERSIDAD DE BARCELONA - BARCELONA (SPAIN)                            *
 *(10) UNIVERSITA' DI NAPOLI "FEDERICO II" - NAPOLI (ITALY)                    *
 *(11) NIS - NANOSTRUCTURED INTERFACES AND SURFACES - TORINO (ITALY)           *
 *(12) MPI FUER CHEMISCHE ENERGIEKONVERSION - MUELHEIM AN DER RUHR (GERMANY)   *
 *(13) UNIVERSITY OF TROMSO - TROMSO (NORWAY)                                  *
 *(14) UNIVERSITE' DE PAU ET DES PAYS DE L'ADOUR - PAU (FRANCE)                *
 *(15) UNIVERSITY OF CALIFORNIA SANTA BARBARA - SANTA BARBARA (USA)            *
 *(16) CURTIN UNIVERSITY - PERTH (AUSTRALIA)                                   *
 *(17) UNIVERSITY COLLEGE LONDON - LONDON (UK)                                 *
 *(18) CAMBRIDGE UNIVERSITY - CAMBRIDGE (UK)                                   *
 *                                                                             *
 *******************************************************************************
 EEEEEEEEEE STARTING  DATE 15 02 2022 TIME 16:56:08.9
 Adsorption tests                                                                

 GEOMETRY INPUT FROM EXTERNAL FILE (FORTRAN UNIT 34)
 2D - SLAB    

 *******************************************************************************
 LATTICE PARAMETERS  (ANGSTROMS AND DEGREES) - PRIMITIVE CELL
       A          B          C        ALPHA      BETA     GAMMA        VOLUME
    2.56062    3.62126  500.00000    90.00000  90.00000  90.00000      9.272672
 INFORMATION **** CHKGRP **** SPGR WITH NO INVERSION

 NUMBER OF IRREDUCIBLE ATOMS IN THE CELL:    4

 CARTESIAN COORDINATES (ANGSTROM) - IRREDUCIBLE ATOMS AND SYMMETRY RELATED

 AT.IRR.  AT  AT.N.          X                   Y                   Z
     1     1    29    1.920460000000E+00  0.000000000000E+00  1.920460000000E+00
     1     2    29    6.401589166530E-01  0.000000000000E+00  1.920460000000E+00
     3     3    29    6.401500000000E-01  1.810631000000E+00  6.401500000000E-01
     3     4    29   -6.401500000000E-01 -1.810631000000E+00  6.401500000000E-01
     5     5     8    1.920460000000E+00  0.000000000000E+00 -1.359850000000E+00
     5     6     8    6.401589166530E-01  0.000000000000E+00 -1.359850000000E+00
     7     7     8    6.401500000000E-01  1.810631000000E+00  3.920460000000E+00
     7     8     8   -6.401500000000E-01 -1.810631000000E+00  3.920460000000E+00

 SYMMETRY CHANGED DURING OLD RUN :  INFORMATION ON SPACE GROUP LOST 
 NUMBER OF SYMMETRY OPERATORS         :    4
 *******************************************************************************
 LATTICE PARAMETERS (ANGSTROMS AND DEGREES) - BOHR = 0.5291772083 ANGSTROM
 PRIMITIVE CELL
         A              B              C           ALPHA      BETA       GAMMA 
     2.56061892     3.62126200   500.00000000    90.000000  90.000000  90.000000
 *******************************************************************************
 ATOMS IN THE ASYMMETRIC UNIT    4 - ATOMS IN THE UNIT CELL:    8
     ATOM                 X/A                 Y/B             Z(ANGSTROM)
 *******************************************************************************
      1 T  29 CU   -2.500016353419E-01  0.000000000000E+00  1.920460000000E+00
      2 F  29 CU    2.500016353431E-01  0.000000000000E+00  1.920460000000E+00
      3 T  29 CU    2.499981531174E-01  5.000000000000E-01  6.401500000000E-01
      4 F  29 CU   -2.499981531174E-01 -5.000000000000E-01  6.401500000000E-01
      5 T   8 O    -2.500016353419E-01  0.000000000000E+00 -1.359850000000E+00
      6 F   8 O     2.500016353431E-01  0.000000000000E+00 -1.359850000000E+00
      7 T   8 O     2.499981531174E-01  5.000000000000E-01  3.920460000000E+00
      8 F   8 O    -2.499981531174E-01 -5.000000000000E-01  3.920460000000E+00

 T = ATOM BELONGING TO THE ASYMMETRIC UNIT
 *******************************************************************************
 * GEOMETRY EDITING - INPUT COORDINATES ARE GIVEN IN ANGSTROM         
 *******************************************************************************

 GEOMETRY NOW FULLY CONSISTENT WITH THE GROUP

 GCALCO - MAX INDICES DIRECT LATTICE VECTOR    98    69     0
 NO.OF VECTORS CREATED 6999 STARS 1080 RMAX   271.49459 BOHR

 GEOMETRY FOR WAVE FUNCTION - DIMENSIONALITY OF THE SYSTEM    2
 (NON PERIODIC DIRECTION: LATTICE PARAMETER FORMALLY SET TO 500)
 *******************************************************************************
 LATTICE PARAMETERS (ANGSTROMS AND DEGREES) - BOHR = 0.5291772083 ANGSTROM
 PRIMITIVE CELL
         A              B              C           ALPHA      BETA       GAMMA 
     2.56061892     3.62126200   500.00000000    90.000000  90.000000  90.000000
 *******************************************************************************
 ATOMS IN THE ASYMMETRIC UNIT    4 - ATOMS IN THE UNIT CELL:    8
     ATOM                 X/A                 Y/B             Z(ANGSTROM)
 *******************************************************************************
      1 T  29 CU   -2.500016353419E-01  0.000000000000E+00  1.920460000000E+00
      2 F  29 CU    2.500016353419E-01  0.000000000000E+00  1.920460000000E+00
      3 T  29 CU    2.499981531174E-01  5.000000000000E-01  6.401500000000E-01
      4 F  29 CU   -2.499981531174E-01  5.000000000000E-01  6.401500000000E-01
      5 T   8 O    -2.500016353419E-01  0.000000000000E+00 -1.359850000000E+00
      6 F   8 O     2.500016353419E-01  0.000000000000E+00 -1.359850000000E+00
      7 T   8 O     2.499981531174E-01  5.000000000000E-01  3.920460000000E+00
      8 F   8 O    -2.499981531174E-01  5.000000000000E-01  3.920460000000E+00

 T = ATOM BELONGING TO THE ASYMMETRIC UNIT

 ****    4 SYMMOPS - TRANSLATORS IN FRACTIONAL UNITS
 **** MATRICES AND TRANSLATORS IN THE CRYSTALLOGRAPHIC REFERENCE FRAME
   V INV                    ROTATION MATRICES                   TRANSLATORS
   1   1  1.00  0.00  0.00  0.00  1.00  0.00  0.00  0.00  1.00  0.00  0.00  0.00
   2   2 -1.00  0.00  0.00  0.00 -1.00  0.00  0.00  0.00  1.00  0.00  0.00  0.00
   3   3 -1.00  0.00  0.00  0.00  1.00  0.00  0.00  0.00  1.00  0.00  0.00  0.00
   4   4  1.00 -0.00  0.00  0.00 -1.00  0.00  0.00  0.00  1.00  0.00  0.00  0.00

 DIRECT LATTICE VECTORS CARTESIAN COMPONENTS (ANGSTROM)
          X                    Y                    Z
   0.256061891665E+01   0.000000000000E+00   0.000000000000E+00
  -0.221738345859E-15   0.362126200000E+01   0.000000000000E+00
   0.000000000000E+00   0.000000000000E+00   0.500000000000E+03


 CARTESIAN COORDINATES - PRIMITIVE CELL
 *******************************************************************************
 *      ATOM          X(ANGSTROM)         Y(ANGSTROM)         Z(ANGSTROM)
 *******************************************************************************
    1    29 CU    1.920460000000E+00  0.000000000000E+00  1.920460000000E+00
    2    29 CU    6.401589166500E-01  0.000000000000E+00  1.920460000000E+00
    3    29 CU    6.401500000000E-01  1.810631000000E+00  6.401500000000E-01
    4    29 CU   -6.401500000000E-01  1.810631000000E+00  6.401500000000E-01
    5     8 O     1.920460000000E+00  0.000000000000E+00 -1.359850000000E+00
    6     8 O     6.401589166500E-01  0.000000000000E+00 -1.359850000000E+00
    7     8 O     6.401500000000E-01  1.810631000000E+00  3.920460000000E+00
    8     8 O    -6.401500000000E-01  1.810631000000E+00  3.920460000000E+00

 *******************************************************************************
 STARTING BASIS SET HANDLING 
 *******************************************************************************

 Loading internal basis set: STO-3G              

 Please cite in your publication:
 H - Ne: W.J. Hehre, R.F. Stewart and J.A. Pople, J. Chem. Phys. 2657 (1969).   
                                                                                
                                                                                
                    
 Na - Ar: W.J. Hehre, R. Ditchfield, R.F. Stewart, J.A. Pople, J. Chem. Phys.  2
 769 (1970).                                                                    
                                                                                
                    
 K,Ca: W.J. Pietro, B.A. Levy, W.J. Hehre and R.F. Stewart, Inorg. Chem., 1980, 
 19 (8), pp 2225-2229                                                           
                                                                                
                    
 Ga-Kr: J. Am. Chem. Soc. 19, 2225 (1980).                                      
                                                                                
                                                                                
                    
 Sc-Zn, Y-Cd: W.J. Pietro and W.J. Hehre, J. Comp. Chem. 4, 241 (1983).         
                                                                                
                                                                                
                    

 *******************************************************************************
 LOCAL ATOMIC FUNCTIONS BASIS SET
 *******************************************************************************
   ATOM   X(AU)   Y(AU)   Z(AU)  N. TYPE  EXPONENT  S COEF   P COEF   D/F/G COEF
 *******************************************************************************
   1 CU   3.629   0.000   3.629
                                  1 S  
                                         1.802E+03 1.543E-01 0.000E+00 0.000E+00
                                         3.282E+02 5.353E-01 0.000E+00 0.000E+00
                                         8.882E+01 4.446E-01 0.000E+00 0.000E+00
                                  2 S  
                                         1.441E+02-9.997E-02 0.000E+00 0.000E+00
                                         3.349E+01 3.995E-01 0.000E+00 0.000E+00
                                         1.089E+01 7.001E-01 0.000E+00 0.000E+00
                                  3 S  
                                         1.131E+01-2.278E-01 0.000E+00 0.000E+00
                                         3.449E+00 2.175E-01 0.000E+00 0.000E+00
                                         1.331E+00 9.167E-01 0.000E+00 0.000E+00
                                  4 S  
                                         6.309E-01-3.088E-01 0.000E+00 0.000E+00
                                         2.329E-01 1.961E-02 0.000E+00 0.000E+00
                                         1.028E-01 1.131E+00 0.000E+00 0.000E+00
                           5-     7 P  
                                         1.441E+02 0.000E+00 1.559E-01 0.000E+00
                                         3.349E+01 0.000E+00 6.077E-01 0.000E+00
                                         1.089E+01 0.000E+00 3.920E-01 0.000E+00
                           8-    10 P  
                                         1.131E+01 0.000E+00 4.952E-03 0.000E+00
                                         3.449E+00 0.000E+00 5.778E-01 0.000E+00
                                         1.331E+00 0.000E+00 4.846E-01 0.000E+00
                          11-    13 P  
                                         6.309E-01 0.000E+00-1.215E-01 0.000E+00
                                         2.329E-01 0.000E+00 5.715E-01 0.000E+00
                                         1.028E-01 0.000E+00 5.499E-01 0.000E+00
                          14-    18 D  
                                         9.648E+00 0.000E+00 0.000E+00 2.198E-01
                                         2.943E+00 0.000E+00 0.000E+00 6.555E-01
                                         1.135E+00 0.000E+00 0.000E+00 2.866E-01
   2 CU   1.210   0.000   3.629
   3 CU   1.210   3.422   1.210
   4 CU  -1.210   3.422   1.210
   5 O    3.629   0.000  -2.570
                                 73 S  
                                         1.307E+02 1.543E-01 0.000E+00 0.000E+00
                                         2.381E+01 5.353E-01 0.000E+00 0.000E+00
                                         6.444E+00 4.446E-01 0.000E+00 0.000E+00
                                 74 S  
                                         5.033E+00-9.997E-02 0.000E+00 0.000E+00
                                         1.170E+00 3.995E-01 0.000E+00 0.000E+00
                                         3.804E-01 7.001E-01 0.000E+00 0.000E+00
                          75-    77 P  
                                         5.033E+00 0.000E+00 1.559E-01 0.000E+00
                                         1.170E+00 0.000E+00 6.077E-01 0.000E+00
                                         3.804E-01 0.000E+00 3.920E-01 0.000E+00
   6 O    1.210   0.000  -2.570
   7 O    1.210   3.422   7.409
   8 O   -1.210   3.422   7.409

 *******************************************************************************
 FINISHED BASIS SET HANDLING 
 *******************************************************************************

 INFORMATION **** SET_MPP **** PCRYSTAL CALCULATION
 INFORMATION **** READM2 **** NEW DEFAULT: FOCK/KS MATRIX MIXING SET TO 30 %
 INFORMATION **** READM2 **** NEW DEFAULT: FULL DIRECT SCF MODE
 INFORMATION **** READM2 **** NEW DEFAULT: COULOMB BIPOLAR BUFFER SET TO 32 Mb
 INFORMATION **** READM2 **** NEW DEFAULT: EXCHANGE BIPOLAR BUFFER SET TO 32 Mb

 *******************************************************************************
 * ATOMS TRANSFORMED INTO GHOSTS :   2
   3( 29)   4( 29)
 SYMMETRY MAY BE BROKEN

 *******************************************************************************
 NEW DEFAULT: DFT INTEGRATION GRID INCREASED TO XLGRID
 NEW DEFAULT: DIIS ACCELERATOR ACTIVE
 USE KEYWORD NODIIS TO TURN IT OFF
 *******************************************************************************

 INFORMATION **** TOLINTEG **** COULOMB AND EXCHANGE SERIES TOLERANCES MODIFIED
 INFORMATION **** MAXCYCLE **** MAX NUMBER OF SCF CYCLES SET TO          20

 GHOST ATOMS - REMOVAL OF NUCLEAR CHARGE AND ELECTRONS
 TOTAL NUCLEAR CHARGE        9.000000E+01
 TOTAL ELECTRONIC CHARGE     9.000000E+01
 *******************************************************************************
 N. OF ATOMS PER CELL         8  COULOMB OVERLAP TOL         (T1) 10**   -5
 NUMBER OF SHELLS            44  COULOMB PENETRATION TOL     (T2) 10**   -5
 NUMBER OF AO                92  EXCHANGE OVERLAP TOL        (T3) 10**   -5
 N. OF ELECTRONS PER CELL    90  EXCHANGE PSEUDO OVP (F(G))  (T4) 10**   -5
 CORE ELECTRONS PER CELL     44  EXCHANGE PSEUDO OVP (P(G))  (T5) 10**  -10
 N. OF SYMMETRY OPERATORS     4  POLE ORDER IN MONO ZONE                  4
 *******************************************************************************
 TYPE OF CALCULATION :  RESTRICTED CLOSED SHELL
 KOHN-SHAM HAMILTONIAN

 (EXCHANGE)[CORRELATION] FUNCTIONAL:(BECKE 88)[LEE-YANG-PARR]

 NON-LOCAL WEIGHTING FACTOR (EXCHANGE) =           0.9000
 NON-LOCAL WEIGHTING FACTOR [CORRELATION] =        0.8100

 HYBRID EXCHANGE - PERCENTAGE OF FOCK EXCHANGE    20.0000

 CAPPA:IS1  6;IS2  6;IS3  1; K PTS MONK NET  16; SYMMOPS:K SPACE   8;G SPACE   4

 *******************************************************************************
 MAX NUMBER OF SCF CYCLES      20  CONVERGENCE ON DELTAP        10**-16
 WEIGHT OF F(I) IN F(I+1)      30% CONVERGENCE ON ENERGY        10**- 6
 SHRINK. FACT.(MONKH.)    6  6  1  NUMBER OF K POINTS IN THE IBZ     16
 SHRINKING FACTOR(GILAT NET)   12  NUMBER OF K POINTS(GILAT NET)     49
 *******************************************************************************
 *** K POINTS COORDINATES (OBLIQUE COORDINATES IN UNITS OF IS =  6)
   1-R(  0  0  0)   2-C(  1  0  0)   3-C(  2  0  0)   4-R(  3  0  0)
   5-C(  0  1  0)   6-C(  1  1  0)   7-C(  2  1  0)   8-C(  3  1  0)
   9-C(  0  2  0)  10-C(  1  2  0)  11-C(  2  2  0)  12-C(  3  2  0)
  13-R(  0  3  0)  14-C(  1  3  0)  15-C(  2  3  0)  16-R(  3  3  0)

 DIRECT LATTICE VECTORS COMPON. (A.U.)     RECIP. LATTICE VECTORS COMPON. (A.U.) 
        X            Y            Z              X            Y            Z
    4.8388685    0.0000000    0.0000000      1.2984823    0.0000000    0.0000000
   -0.0000000    6.8431934    0.0000000      0.0000000    0.9181657    0.0000000
    0.0000000    0.0000000  944.8630670      0.0000000    0.0000000    0.0066498

 DISK SPACE FOR EIGENVECTORS (FTN 10)      236992 REALS

 SYMMETRY ADAPTION OF THE BLOCH FUNCTIONS ENABLED
 TTTTTTTTTTTTTTTTTTTTTTTTTTTTTT gordsh1     TELAPSE        0.01 TCPU        0.01

 MATRIX SIZE: P(G)   77604, F(G)   17608, P(G) IRR   12337, F(G) IRR    5951
 MAX G-VECTOR INDEX FOR 1- AND 2-ELECTRON INTEGRALS  65

 TTTTTTTTTTTTTTTTTTTTTTTTTTTTTT INPUT       TELAPSE        0.01 TCPU        0.01

 NEIGHBORS OF THE NON-EQUIVALENT ATOMS

 N = NUMBER OF NEIGHBORS AT DISTANCE R
    ATOM  N     R/ANG      R/AU   NEIGHBORS (ATOM LABELS AND CELL INDICES)
   1 CU   1     1.2803     2.4194    2 CU   0 0 0
   1 CU   1     1.2803     2.4195    2 CU   1 0 0
   1 CU   2     2.2176     4.1906    4 XX   1-1 0    4 XX   1 0 0
   1 CU   2     2.5606     4.8389    1 CU  -1 0 0    1 CU   1 0 0
   1 CU   2     2.5606     4.8389    3 XX   1 0 0    3 XX   1-1 0
   1 CU   2     2.5606     4.8389    3 XX   0 0 0    3 XX   0-1 0

   3 XX   1     1.2803     2.4194    4 XX   0 0 0
   3 XX   1     1.2803     2.4195    4 XX   1 0 0
   3 XX   2     2.2176     4.1906    2 CU   0 0 0    2 CU   0 1 0
   3 XX   2     2.5606     4.8389    1 CU  -1 0 0    1 CU  -1 1 0
   3 XX   2     2.5606     4.8389    3 XX  -1 0 0    3 XX   1 0 0
   3 XX   2     2.5606     4.8389    1 CU   0 0 0    1 CU   0 1 0

   5 O    1     1.2803     2.4194    6 O    0 0 0
   5 O    1     1.2803     2.4195    6 O    1 0 0
   5 O    2     2.5606     4.8389    5 O   -1 0 0    5 O    1 0 0
   5 O    2     2.6978     5.0982    4 XX   1 0 0    4 XX   1-1 0
   5 O    2     2.9862     5.6432    3 XX   1 0 0    3 XX   1-1 0
   5 O    2     2.9862     5.6432    3 XX   0 0 0    3 XX   0-1 0

   7 O    1     1.2803     2.4194    8 O    0 0 0
   7 O    1     1.2803     2.4195    8 O    1 0 0
   7 O    2     2.5606     4.8389    7 O   -1 0 0    7 O    1 0 0
   7 O    2     2.6978     5.0982    2 CU   0 1 0    2 CU   0 0 0
   7 O    2     2.9862     5.6432    1 CU  -1 0 0    1 CU  -1 1 0
   7 O    2     2.9862     5.6432    1 CU   0 0 0    1 CU   0 1 0


 SYMMETRY ALLOWED INTERNAL DEGREE(S) OF FREEDOM:   7
 TTTTTTTTTTTTTTTTTTTTTTTTTTTTTT SYMM        TELAPSE        0.01 TCPU        0.01
 TTTTTTTTTTTTTTTTTTTTTTTTTTTTTT INT_SCREEN  TELAPSE        0.01 TCPU        0.01
 INFORMATION **** EXCBUF **** EXCH. BIPO BUFFER: WORDS USED =      370314

 DFT PARAMETERS

     ATOM       ELECTRONS   NET CHARGE   R(ANGSTROM)
   1  29  CU     29.0000      0.0000     1.28000000
   3   0  XX      0.0000      0.0000     0.50000000
   5   8  O       8.0000      0.0000     0.74000000

 SIZE OF GRID=     118934
 TTTTTTTTTTTTTTTTTTTTTTTTTTTTTT MAKE_GRID2  TELAPSE        0.81 TCPU        0.81
 BECKE WEIGHT FUNCTION
 RADSAFE =     2.00
 TOLERANCES - DENSITY:10**- 6; POTENTIAL:10**- 9; GRID WGT:10**-14

 RADIAL INTEGRATION  - INTERVALS (POINTS,UPPER LIMIT):            1( 99,  4.0*R)

 ANGULAR INTEGRATION - INTERVALS (ACCURACY LEVEL [N. POINTS] UPPER LIMIT):
  1(  6[ 146]   0.2)  2( 11[ 302]   0.5)  3( 14[ 590]   0.9)  4( 18[1454]   3.5)
  5( 14[ 590]9999.0)

 GHOST ATOMS - REMOVAL OF NUCLEAR CHARGE AND ELECTRONS
 TOTAL NUCLEAR CHARGE        9.000000E+01
 TOTAL ELECTRONIC CHARGE     9.000000E+01
 TTTTTTTTTTTTTTTTTTTTTTTTTTTTTT INT_CALC    TELAPSE        0.81 TCPU        0.81
 EEEEEEEEEE INT_CALC TERMINATION  DATE 15 02 2022 TIME 16:56:09.7

 *******************************************************************************
 Adsorption tests                                                                
 CRYSTAL - SCF - TYPE OF CALCULATION :  RESTRICTED CLOSED SHELL
 *******************************************************************************

 CAPPA:IS1  6;IS2  6;IS3  1; K PTS MONK NET  16; SYMMOPS:K SPACE   8;G SPACE   4

 TTTTTTTTTTTTTTTTTTTTTTTTTTTTTT SDIK        TELAPSE        0.83 TCPU        0.83

 AAAAAAAAAAAAAAAAAAAAAAAAAAAAAAAAAAAAAAAAAAAAAAAAAAAAAAAAAAAAAAAAAAAAAAAAAAAAAAA
         ATOMIC WAVEFUNCTION(S)


 NUCLEAR CHARGE 29.0  SYMMETRY SPECIES            S    P    D
 N. ELECTRONS   29.0  NUMBER OF PRIMITIVE GTOS   12    9    3
                      NUMBER OF CONTRACTED GTOS   4    3    1
                      NUMBER OF CLOSED SHELLS     4    2    0
                      OPEN SHELL OCCUPATION       0    0    9

  ZNUC SCFIT  TOTAL HF ENERGY   KINETIC ENERGY   VIRIAL THEOREM ACCURACY
  29.0   5   -1.619844227E+03  1.626147454E+03 -1.996123828E+00  5.2E-07

 NUCLEAR CHARGE  8.0  SYMMETRY SPECIES            S    P
 N. ELECTRONS    8.0  NUMBER OF PRIMITIVE GTOS    6    3
                      NUMBER OF CONTRACTED GTOS   2    1
                      NUMBER OF CLOSED SHELLS     2    0
                      OPEN SHELL OCCUPATION       0    4

  ZNUC SCFIT  TOTAL HF ENERGY   KINETIC ENERGY   VIRIAL THEOREM ACCURACY
   8.0   1   -7.380415023E+01  7.344495887E+01 -2.004890620E+00  0.0E+00

 AAAAAAAAAAAAAAAAAAAAAAAAAAAAAAAAAAAAAAAAAAAAAAAAAAAAAAAAAAAAAAAAAAAAAAAAAAAAAAA

 CHARGE NORMALIZATION FACTOR   1.00000000
 TOTAL ATOMIC CHARGES:
  29.0000000  29.0000000   0.0000000   0.0000000   8.0000000   8.0000000
   8.0000000   8.0000000
 TTTTTTTTTTTTTTTTTTTTTTTTTTTTTT MOQGAD      TELAPSE        0.86 TCPU        0.86
 TTTTTTTTTTTTTTTTTTTTTTTTTTTTTT SHELLXN     TELAPSE       66.31 TCPU       66.27
 TTTTTTTTTTTTTTTTTTTTTTTTTTTTTT MONMO3      TELAPSE       66.49 TCPU       66.44
 NUMERICALLY INTEGRATED DENSITY     90.0000084551
 TTTTTTTTTTTTTTTTTTTTTTTTTTTTTT NUMDFT      TELAPSE       68.93 TCPU       68.88
 CYC   0 ETOT(AU) -3.540892211599E+03 DETOT -3.54E+03 tst  0.00E+00 PX  1.00E+00
 TTTTTTTTTTTTTTTTTTTTTTTTTTTTTT DIIS        TELAPSE       68.94 TCPU       68.89
 TTTTTTTTTTTTTTTTTTTTTTTTTTTTTT FDIK        TELAPSE       68.98 TCPU       68.93
 POSSIBLY CONDUCTING STATE - EFERMI(AU)  3.5612947E-01 (RES. CHARGE  7.11E-15;IT. 12)
 TTTTTTTTTTTTTTTTTTTTTTTTTTTTTT PDIG        TELAPSE       68.99 TCPU       68.94
 CHARGE NORMALIZATION FACTOR   1.00000000
 TOTAL ATOMIC CHARGES:
  24.7563357  24.7563357   2.0435942   2.0435942   9.0796247   9.0796247
   9.1204454   9.1204454
 TTTTTTTTTTTTTTTTTTTTTTTTTTTTTT MOQGAD      TELAPSE       69.02 TCPU       68.97
 TTTTTTTTTTTTTTTTTTTTTTTTTTTTTT SHELLXN     TELAPSE      135.67 TCPU      135.57
 TTTTTTTTTTTTTTTTTTTTTTTTTTTTTT MONMO3      TELAPSE      135.84 TCPU      135.74
 NUMERICALLY INTEGRATED DENSITY     89.9995203521
 TTTTTTTTTTTTTTTTTTTTTTTTTTTTTT NUMDFT      TELAPSE      142.40 TCPU      142.30
 CYC   1 ETOT(AU) -3.437669189925E+03 DETOT  1.03E+02 tst  0.00E+00 PX  1.00E+00
 TTTTTTTTTTTTTTTTTTTTTTTTTTTTTT DIIS        TELAPSE      142.40 TCPU      142.31
 DIIS TEST: 0.21029E+03 AT SCF   CYCLE   1 - MIX   30 %
 TTTTTTTTTTTTTTTTTTTTTTTTTTTTTT FDIK        TELAPSE      142.42 TCPU      142.33
 POSSIBLY CONDUCTING STATE - EFERMI(AU) -2.0248399E+00 (RES. CHARGE  9.04E-10;IT. 10)
 TTTTTTTTTTTTTTTTTTTTTTTTTTTTTT PDIG        TELAPSE      142.43 TCPU      142.34
 CHARGE NORMALIZATION FACTOR   1.00000000
 TOTAL ATOMIC CHARGES:
  35.6428313  35.6428313   0.5110609   0.5110609   2.0091162   2.0091162
   6.8369917   6.8369917
 TTTTTTTTTTTTTTTTTTTTTTTTTTTTTT MOQGAD      TELAPSE      142.46 TCPU      142.36
 TTTTTTTTTTTTTTTTTTTTTTTTTTTTTT SHELLXN     TELAPSE      209.18 TCPU      209.06
 TTTTTTTTTTTTTTTTTTTTTTTTTTTTTT MONMO3      TELAPSE      209.36 TCPU      209.23
 NUMERICALLY INTEGRATED DENSITY     89.9972462903
 TTTTTTTTTTTTTTTTTTTTTTTTTTTTTT NUMDFT      TELAPSE      215.94 TCPU      215.80
 CYC   2 ETOT(AU) -2.888020731011E+03 DETOT  5.50E+02 tst  6.28E+01 PX  3.12E+02
 TTTTTTTTTTTTTTTTTTTTTTTTTTTTTT DIIS        TELAPSE      215.94 TCPU      215.81
 DIIS TEST: 0.74352E+02 AT SCF   CYCLE   2 - DIIS ACTIVE - HISTORY:     2 CYCLES
 TTTTTTTTTTTTTTTTTTTTTTTTTTTTTT FDIK        TELAPSE      215.96 TCPU      215.83
 POSSIBLY CONDUCTING STATE - EFERMI(AU)  6.8492313E+00 (RES. CHARGE  2.08E-10;IT. 10)
 TTTTTTTTTTTTTTTTTTTTTTTTTTTTTT PDIG        TELAPSE      215.97 TCPU      215.84
 CHARGE NORMALIZATION FACTOR   1.00000000
 TOTAL ATOMIC CHARGES:
  23.7006567  23.7006567   8.3098703   8.3098703  10.0014664  10.0014664
   2.9880066   2.9880066
 TTTTTTTTTTTTTTTTTTTTTTTTTTTTTT MOQGAD      TELAPSE      216.00 TCPU      215.86
 TTTTTTTTTTTTTTTTTTTTTTTTTTTTTT SHELLXN     TELAPSE      282.75 TCPU      282.57
 TTTTTTTTTTTTTTTTTTTTTTTTTTTTTT MONMO3      TELAPSE      282.93 TCPU      282.74
 NUMERICALLY INTEGRATED DENSITY     89.9995432743
 TTTTTTTTTTTTTTTTTTTTTTTTTTTTTT NUMDFT      TELAPSE      289.51 TCPU      289.33
 CYC   3 ETOT(AU) -3.196954973997E+03 DETOT -3.09E+02 tst  1.18E+02 PX  3.09E+02
 TTTTTTTTTTTTTTTTTTTTTTTTTTTTTT DIIS        TELAPSE      289.51 TCPU      289.33
 DIIS TEST: 0.19022E+03 AT SCF   CYCLE   3 - DIIS ACTIVE - HISTORY:     3 CYCLES
 TTTTTTTTTTTTTTTTTTTTTTTTTTTTTT FDIK        TELAPSE      289.53 TCPU      289.35
 POSSIBLY CONDUCTING STATE - EFERMI(AU)  3.2808873E+00 (RES. CHARGE  2.08E-11;IT. 10)
 TTTTTTTTTTTTTTTTTTTTTTTTTTTTTT PDIG        TELAPSE      289.54 TCPU      289.36
 CHARGE NORMALIZATION FACTOR   1.00000000
 TOTAL ATOMIC CHARGES:
  22.0767249  22.0767249   2.8949593   2.8949593  10.0156099  10.0156099
  10.0127059  10.0127059
 TTTTTTTTTTTTTTTTTTTTTTTTTTTTTT MOQGAD      TELAPSE      289.57 TCPU      289.38
 TTTTTTTTTTTTTTTTTTTTTTTTTTTTTT SHELLXN     TELAPSE      356.18 TCPU      355.98
 TTTTTTTTTTTTTTTTTTTTTTTTTTTTTT MONMO3      TELAPSE      356.35 TCPU      356.15
 NUMERICALLY INTEGRATED DENSITY     89.9995020722
 TTTTTTTTTTTTTTTTTTTTTTTTTTTTTT NUMDFT      TELAPSE      362.94 TCPU      362.74
 CYC   4 ETOT(AU) -3.425940080829E+03 DETOT -2.29E+02 tst  7.74E+00 PX  7.04E+00
 TTTTTTTTTTTTTTTTTTTTTTTTTTTTTT DIIS        TELAPSE      362.94 TCPU      362.74
 DIIS TEST: 0.91784E+02 AT SCF   CYCLE   4 - DIIS ACTIVE - HISTORY:     4 CYCLES
 TTTTTTTTTTTTTTTTTTTTTTTTTTTTTT FDIK        TELAPSE      362.96 TCPU      362.76
 POSSIBLY CONDUCTING STATE - EFERMI(AU)  2.2732857E-01 (RES. CHARGE  3.49E-12;IT. 14)
 TTTTTTTTTTTTTTTTTTTTTTTTTTTTTT PDIG        TELAPSE      362.97 TCPU      362.77
 CHARGE NORMALIZATION FACTOR   1.00000000
 TOTAL ATOMIC CHARGES:
  30.1978359  30.1978359   1.4802724   1.4802724  10.0285361  10.0285361
   3.2933555   3.2933555
 TTTTTTTTTTTTTTTTTTTTTTTTTTTTTT MOQGAD      TELAPSE      363.00 TCPU      362.80
 TTTTTTTTTTTTTTTTTTTTTTTTTTTTTT SHELLXN     TELAPSE      430.22 TCPU      429.72
 TTTTTTTTTTTTTTTTTTTTTTTTTTTTTT MONMO3      TELAPSE      430.39 TCPU      429.89
 NUMERICALLY INTEGRATED DENSITY     90.0000620301
 TTTTTTTTTTTTTTTTTTTTTTTTTTTTTT NUMDFT      TELAPSE      436.96 TCPU      436.46
 CYC   5 ETOT(AU) -3.386195012593E+03 DETOT  3.97E+01 tst  3.66E+01 PX  2.52E+01
 TTTTTTTTTTTTTTTTTTTTTTTTTTTTTT DIIS        TELAPSE      436.96 TCPU      436.46
 DIIS TEST: 0.28538E+02 AT SCF   CYCLE   5 - DIIS ACTIVE - HISTORY:     5 CYCLES
 TTTTTTTTTTTTTTTTTTTTTTTTTTTTTT FDIK        TELAPSE      436.98 TCPU      436.48
 POSSIBLY CONDUCTING STATE - EFERMI(AU)  5.0876224E-01 (RES. CHARGE  3.13E-13;IT. 12)
 TTTTTTTTTTTTTTTTTTTTTTTTTTTTTT PDIG        TELAPSE      436.99 TCPU      436.49
 CHARGE NORMALIZATION FACTOR   1.00000000
 TOTAL ATOMIC CHARGES:
  32.1855683  32.1855683   0.8100018   0.8100018   1.9991565   1.9991565
  10.0052734  10.0052734
 TTTTTTTTTTTTTTTTTTTTTTTTTTTTTT MOQGAD      TELAPSE      437.02 TCPU      436.52
 TTTTTTTTTTTTTTTTTTTTTTTTTTTTTT SHELLXN     TELAPSE      503.64 TCPU      503.13
 TTTTTTTTTTTTTTTTTTTTTTTTTTTTTT MONMO3      TELAPSE      503.81 TCPU      503.30
 NUMERICALLY INTEGRATED DENSITY     89.9992440224
 TTTTTTTTTTTTTTTTTTTTTTTTTTTTTT NUMDFT      TELAPSE      510.35 TCPU      509.84
 CYC   6 ETOT(AU) -3.338822629085E+03 DETOT  4.74E+01 tst  2.02E+02 PX  9.67E+01
 TTTTTTTTTTTTTTTTTTTTTTTTTTTTTT DIIS        TELAPSE      510.36 TCPU      509.85
 DIIS TEST: 0.19994E+02 AT SCF   CYCLE   6 - DIIS ACTIVE - HISTORY:     6 CYCLES
 TTTTTTTTTTTTTTTTTTTTTTTTTTTTTT FDIK        TELAPSE      510.38 TCPU      509.86
 POSSIBLY CONDUCTING STATE - EFERMI(AU)  1.9647462E+00 (RES. CHARGE  2.86E-10;IT.  8)
 TTTTTTTTTTTTTTTTTTTTTTTTTTTTTT PDIG        TELAPSE      510.39 TCPU      509.88
 CHARGE NORMALIZATION FACTOR   1.00000000
 TOTAL ATOMIC CHARGES:
  22.6659660  22.6659660   4.5883840   4.5883840  10.0053402  10.0053402
   7.7403097   7.7403097
 TTTTTTTTTTTTTTTTTTTTTTTTTTTTTT MOQGAD      TELAPSE      510.41 TCPU      509.90
 TTTTTTTTTTTTTTTTTTTTTTTTTTTTTT SHELLXN     TELAPSE      577.11 TCPU      576.57
 TTTTTTTTTTTTTTTTTTTTTTTTTTTTTT MONMO3      TELAPSE      577.28 TCPU      576.74
 NUMERICALLY INTEGRATED DENSITY     89.9982636887
 TTTTTTTTTTTTTTTTTTTTTTTTTTTTTT NUMDFT      TELAPSE      583.85 TCPU      583.31
 CYC   7 ETOT(AU) -3.253257362780E+03 DETOT  8.56E+01 tst  1.75E+02 PX  1.84E+02
 TTTTTTTTTTTTTTTTTTTTTTTTTTTTTT DIIS        TELAPSE      583.86 TCPU      583.31
 DIIS TEST: 0.20788E+03 AT SCF   CYCLE   7 - DIIS ACTIVE - HISTORY:     7 CYCLES
 TTTTTTTTTTTTTTTTTTTTTTTTTTTTTT FDIK        TELAPSE      583.88 TCPU      583.33
 POSSIBLY CONDUCTING STATE - EFERMI(AU)  1.6030543E+00 (RES. CHARGE  8.33E-12;IT. 10)
 TTTTTTTTTTTTTTTTTTTTTTTTTTTTTT PDIG        TELAPSE      583.89 TCPU      583.34
 CHARGE NORMALIZATION FACTOR   1.00000000
 TOTAL ATOMIC CHARGES:
  27.5049258  27.5049258   5.4935246   5.4935246  10.0045303  10.0045303
   1.9970193   1.9970193
 TTTTTTTTTTTTTTTTTTTTTTTTTTTTTT MOQGAD      TELAPSE      583.92 TCPU      583.37
 TTTTTTTTTTTTTTTTTTTTTTTTTTTTTT SHELLXN     TELAPSE      650.69 TCPU      650.10
 TTTTTTTTTTTTTTTTTTTTTTTTTTTTTT MONMO3      TELAPSE      650.86 TCPU      650.27
 NUMERICALLY INTEGRATED DENSITY     89.9990572869
 TTTTTTTTTTTTTTTTTTTTTTTTTTTTTT NUMDFT      TELAPSE      657.42 TCPU      656.82
 CYC   8 ETOT(AU) -3.097918198306E+03 DETOT  1.55E+02 tst  9.18E+01 PX  1.34E+02
 TTTTTTTTTTTTTTTTTTTTTTTTTTTTTT DIIS        TELAPSE      657.42 TCPU      656.83
 DIIS TEST: 0.18284E+03 AT SCF   CYCLE   8 - DIIS ACTIVE - HISTORY:     8 CYCLES
 TTTTTTTTTTTTTTTTTTTTTTTTTTTTTT FDIK        TELAPSE      657.44 TCPU      656.84
 POSSIBLY CONDUCTING STATE - EFERMI(AU)  2.2019212E+00 (RES. CHARGE  2.90E-10;IT. 10)
 TTTTTTTTTTTTTTTTTTTTTTTTTTTTTT PDIG        TELAPSE      657.45 TCPU      656.86
 CHARGE NORMALIZATION FACTOR   1.00000000
 TOTAL ATOMIC CHARGES:
  26.8698719  26.8698719   5.7187231   5.7187231  10.0050853  10.0050853
   2.4063198   2.4063198
 TTTTTTTTTTTTTTTTTTTTTTTTTTTTTT MOQGAD      TELAPSE      657.48 TCPU      656.88
 TTTTTTTTTTTTTTTTTTTTTTTTTTTTTT SHELLXN     TELAPSE      724.79 TCPU      723.96
 TTTTTTTTTTTTTTTTTTTTTTTTTTTTTT MONMO3      TELAPSE      724.96 TCPU      724.13
 NUMERICALLY INTEGRATED DENSITY     89.9991171787
 TTTTTTTTTTTTTTTTTTTTTTTTTTTTTT NUMDFT      TELAPSE      731.81 TCPU      730.86
 CYC   9 ETOT(AU) -3.161623468153E+03 DETOT -6.37E+01 tst  8.76E+01 PX  1.10E+02
 TTTTTTTTTTTTTTTTTTTTTTTTTTTTTT DIIS        TELAPSE      731.81 TCPU      730.87
 DIIS TEST: 0.28948E+03 AT SCF   CYCLE   9 - DIIS ACTIVE - HISTORY:     9 CYCLES
 TTTTTTTTTTTTTTTTTTTTTTTTTTTTTT FDIK        TELAPSE      731.83 TCPU      730.88
 POSSIBLY CONDUCTING STATE - EFERMI(AU)  1.7600804E+00 (RES. CHARGE  1.11E-12;IT. 10)
 TTTTTTTTTTTTTTTTTTTTTTTTTTTTTT PDIG        TELAPSE      731.84 TCPU      730.90
 CHARGE NORMALIZATION FACTOR   1.00000000
 TOTAL ATOMIC CHARGES:
  27.6098636  27.6098636   5.0473631   5.0473631  10.0064949  10.0064949
   2.3362784   2.3362784
 TTTTTTTTTTTTTTTTTTTTTTTTTTTTTT MOQGAD      TELAPSE      731.87 TCPU      730.92
 TTTTTTTTTTTTTTTTTTTTTTTTTTTTTT SHELLXN     TELAPSE      799.59 TCPU      798.11
 TTTTTTTTTTTTTTTTTTTTTTTTTTTTTT MONMO3      TELAPSE      799.76 TCPU      798.28
 NUMERICALLY INTEGRATED DENSITY     89.9990766668
 TTTTTTTTTTTTTTTTTTTTTTTTTTTTTT NUMDFT      TELAPSE      806.34 TCPU      804.85
 CYC  10 ETOT(AU) -3.139791500681E+03 DETOT  2.18E+01 tst  2.14E+00 PX  8.01E+00
 TTTTTTTTTTTTTTTTTTTTTTTTTTTTTT DIIS        TELAPSE      806.35 TCPU      804.86
 DIIS TEST: 0.28186E+03 AT SCF   CYCLE  10 - DIIS ACTIVE - HISTORY:    10 CYCLES
 TTTTTTTTTTTTTTTTTTTTTTTTTTTTTT FDIK        TELAPSE      806.37 TCPU      804.88
 POSSIBLY CONDUCTING STATE - EFERMI(AU)  1.5924643E+00 (RES. CHARGE  1.91E-10;IT. 10)
 TTTTTTTTTTTTTTTTTTTTTTTTTTTTTT PDIG        TELAPSE      806.38 TCPU      804.89
 CHARGE NORMALIZATION FACTOR   1.00000000
 TOTAL ATOMIC CHARGES:
  27.9660832  27.9660832   4.5575321   4.5575321  10.0074152  10.0074152
   2.4689695   2.4689695
 TTTTTTTTTTTTTTTTTTTTTTTTTTTTTT MOQGAD      TELAPSE      806.40 TCPU      804.91
 TTTTTTTTTTTTTTTTTTTTTTTTTTTTTT SHELLXN     TELAPSE      873.24 TCPU      871.70
 TTTTTTTTTTTTTTTTTTTTTTTTTTTTTT MONMO3      TELAPSE      873.41 TCPU      871.87
 NUMERICALLY INTEGRATED DENSITY     89.9990850834
 TTTTTTTTTTTTTTTTTTTTTTTTTTTTTT NUMDFT      TELAPSE      879.97 TCPU      878.42
 CYC  11 ETOT(AU) -3.141970997475E+03 DETOT -2.18E+00 tst  4.11E-01 PX  7.16E+00
 TTTTTTTTTTTTTTTTTTTTTTTTTTTTTT DIIS        TELAPSE      879.98 TCPU      878.43
 DIIS TEST: 0.28548E+03 AT SCF   CYCLE  11 - DIIS ACTIVE - HISTORY:    11 CYCLES
 TTTTTTTTTTTTTTTTTTTTTTTTTTTTTT FDIK        TELAPSE      879.99 TCPU      878.45
 POSSIBLY CONDUCTING STATE - EFERMI(AU)  1.5932787E+00 (RES. CHARGE  3.43E-11;IT.  8)
 TTTTTTTTTTTTTTTTTTTTTTTTTTTTTT PDIG        TELAPSE      880.01 TCPU      878.46
 CHARGE NORMALIZATION FACTOR   1.00000000
 TOTAL ATOMIC CHARGES:
  27.9613726  27.9613726   4.5533894   4.5533894  10.0074023  10.0074023
   2.4778358   2.4778358
 TTTTTTTTTTTTTTTTTTTTTTTTTTTTTT MOQGAD      TELAPSE      880.03 TCPU      878.48
 TTTTTTTTTTTTTTTTTTTTTTTTTTTTTT SHELLXN     TELAPSE      946.89 TCPU      945.23
 TTTTTTTTTTTTTTTTTTTTTTTTTTTTTT MONMO3      TELAPSE      947.07 TCPU      945.40
 NUMERICALLY INTEGRATED DENSITY     89.9990863255
 TTTTTTTTTTTTTTTTTTTTTTTTTTTTTT NUMDFT      TELAPSE      953.62 TCPU      951.96
 CYC  12 ETOT(AU) -3.141291608227E+03 DETOT  6.79E-01 tst  4.80E-03 PX  7.98E-01
 TTTTTTTTTTTTTTTTTTTTTTTTTTTTTT DIIS        TELAPSE      953.63 TCPU      951.96
 DIIS TEST: 0.29084E+03 AT SCF   CYCLE  12 - DIIS ACTIVE - HISTORY:    12 CYCLES
 TTTTTTTTTTTTTTTTTTTTTTTTTTTTTT FDIK        TELAPSE      953.65 TCPU      951.98
 POSSIBLY CONDUCTING STATE - EFERMI(AU)  1.5894279E+00 (RES. CHARGE  1.31E-12;IT. 10)
 TTTTTTTTTTTTTTTTTTTTTTTTTTTTTT PDIG        TELAPSE      953.66 TCPU      951.99
 CHARGE NORMALIZATION FACTOR   1.00000000
 TOTAL ATOMIC CHARGES:
  27.8559914  27.8559914   4.4599968   4.4599968  10.0075957  10.0075957
   2.6764162   2.6764162
 TTTTTTTTTTTTTTTTTTTTTTTTTTTTTT MOQGAD      TELAPSE      953.68 TCPU      952.02
 TTTTTTTTTTTTTTTTTTTTTTTTTTTTTT SHELLXN     TELAPSE     1020.39 TCPU     1018.71
 TTTTTTTTTTTTTTTTTTTTTTTTTTTTTT MONMO3      TELAPSE     1020.56 TCPU     1018.88
 NUMERICALLY INTEGRATED DENSITY     89.9990921956
 TTTTTTTTTTTTTTTTTTTTTTTTTTTTTT NUMDFT      TELAPSE     1027.12 TCPU     1025.43
 CYC  13 ETOT(AU) -3.146007097037E+03 DETOT -4.72E+00 tst  2.44E-01 PX  5.36E+00
 TTTTTTTTTTTTTTTTTTTTTTTTTTTTTT DIIS        TELAPSE     1027.12 TCPU     1025.44
 DIIS TEST: 0.28729E+03 AT SCF   CYCLE  13 - DIIS ACTIVE - HISTORY:    13 CYCLES
 TTTTTTTTTTTTTTTTTTTTTTTTTTTTTT FDIK        TELAPSE     1027.14 TCPU     1025.46
 POSSIBLY CONDUCTING STATE - EFERMI(AU)  1.6349423E+00 (RES. CHARGE  2.13E-14;IT. 12)
 TTTTTTTTTTTTTTTTTTTTTTTTTTTTTT PDIG        TELAPSE     1027.15 TCPU     1025.47
 CHARGE NORMALIZATION FACTOR   1.00000000
 TOTAL ATOMIC CHARGES:
  28.1842322  28.1842322   4.6116574   4.6116574  10.0072476  10.0072476
   2.1968628   2.1968628
 TTTTTTTTTTTTTTTTTTTTTTTTTTTTTT MOQGAD      TELAPSE     1027.18 TCPU     1025.49
 TTTTTTTTTTTTTTTTTTTTTTTTTTTTTT SHELLXN     TELAPSE     1093.94 TCPU     1092.21
 TTTTTTTTTTTTTTTTTTTTTTTTTTTTTT MONMO3      TELAPSE     1094.12 TCPU     1092.38
 NUMERICALLY INTEGRATED DENSITY     89.9990906910
 TTTTTTTTTTTTTTTTTTTTTTTTTTTTTT NUMDFT      TELAPSE     1100.70 TCPU     1098.97
 CYC  14 ETOT(AU) -3.127317418785E+03 DETOT  1.87E+01 tst  8.82E-02 PX  3.16E+00
 TTTTTTTTTTTTTTTTTTTTTTTTTTTTTT DIIS        TELAPSE     1100.71 TCPU     1098.97
 DIIS TEST: 0.27034E+03 AT SCF   CYCLE  14 - DIIS ACTIVE - HISTORY:    14 CYCLES
 TTTTTTTTTTTTTTTTTTTTTTTTTTTTTT FDIK        TELAPSE     1100.73 TCPU     1098.99
 POSSIBLY CONDUCTING STATE - EFERMI(AU)  1.7251379E+00 (RES. CHARGE  5.64E-11;IT. 12)
 TTTTTTTTTTTTTTTTTTTTTTTTTTTTTT PDIG        TELAPSE     1100.74 TCPU     1099.00
 CHARGE NORMALIZATION FACTOR   1.00000000
 TOTAL ATOMIC CHARGES:
  26.9740329  26.9740329   4.5629141   4.5629141  10.0074383  10.0074383
   3.4556147   3.4556147
 TTTTTTTTTTTTTTTTTTTTTTTTTTTTTT MOQGAD      TELAPSE     1100.76 TCPU     1099.03
 TTTTTTTTTTTTTTTTTTTTTTTTTTTTTT SHELLXN     TELAPSE     1167.60 TCPU     1165.75
 TTTTTTTTTTTTTTTTTTTTTTTTTTTTTT MONMO3      TELAPSE     1167.77 TCPU     1165.92
 NUMERICALLY INTEGRATED DENSITY     89.9990636677
 TTTTTTTTTTTTTTTTTTTTTTTTTTTTTT NUMDFT      TELAPSE     1174.38 TCPU     1172.52
 CYC  15 ETOT(AU) -3.202599395696E+03 DETOT -7.53E+01 tst  1.61E+00 PX  1.88E+01
 TTTTTTTTTTTTTTTTTTTTTTTTTTTTTT DIIS        TELAPSE     1174.39 TCPU     1172.53
 DIIS TEST: 0.32809E+03 AT SCF   CYCLE  15 - DIIS ACTIVE - HISTORY:    15 CYCLES
 TTTTTTTTTTTTTTTTTTTTTTTTTTTTTT FDIK        TELAPSE     1174.40 TCPU     1172.54
 POSSIBLY CONDUCTING STATE - EFERMI(AU)  1.6133295E+00 (RES. CHARGE  1.42E-14;IT. 10)
 TTTTTTTTTTTTTTTTTTTTTTTTTTTTTT PDIG        TELAPSE     1174.42 TCPU     1172.56
 CHARGE NORMALIZATION FACTOR   1.00000000
 TOTAL ATOMIC CHARGES:
  27.4561037  27.4561037   4.5022798   4.5022798  10.0074511  10.0074511
   3.0341654   3.0341654
 TTTTTTTTTTTTTTTTTTTTTTTTTTTTTT MOQGAD      TELAPSE     1174.44 TCPU     1172.58
 TTTTTTTTTTTTTTTTTTTTTTTTTTTTTT SHELLXN     TELAPSE     1241.21 TCPU     1239.33
 TTTTTTTTTTTTTTTTTTTTTTTTTTTTTT MONMO3      TELAPSE     1241.39 TCPU     1239.50
 NUMERICALLY INTEGRATED DENSITY     89.9990799564
 TTTTTTTTTTTTTTTTTTTTTTTTTTTTTT NUMDFT      TELAPSE     1247.94 TCPU     1246.06
 CYC  16 ETOT(AU) -3.170917721074E+03 DETOT  3.17E+01 tst  3.26E+00 PX  2.09E+01
 TTTTTTTTTTTTTTTTTTTTTTTTTTTTTT DIIS        TELAPSE     1247.95 TCPU     1246.06
 DIIS TEST: 0.29361E+03 AT SCF   CYCLE  16 - DIIS ACTIVE - HISTORY:    16 CYCLES
 TTTTTTTTTTTTTTTTTTTTTTTTTTTTTT FDIK        TELAPSE     1247.96 TCPU     1246.08
 POSSIBLY CONDUCTING STATE - EFERMI(AU)  1.5746669E+00 (RES. CHARGE  5.77E-11;IT.  8)
 TTTTTTTTTTTTTTTTTTTTTTTTTTTTTT PDIG        TELAPSE     1247.98 TCPU     1246.09
 CHARGE NORMALIZATION FACTOR   1.00000000
 TOTAL ATOMIC CHARGES:
  27.4665058  27.4665058   4.4062756   4.4062756  10.0076071  10.0076071
   3.1196115   3.1196115
 TTTTTTTTTTTTTTTTTTTTTTTTTTTTTT MOQGAD      TELAPSE     1248.00 TCPU     1246.11
 TTTTTTTTTTTTTTTTTTTTTTTTTTTTTT SHELLXN     TELAPSE     1314.79 TCPU     1312.83
 TTTTTTTTTTTTTTTTTTTTTTTTTTTTTT MONMO3      TELAPSE     1314.96 TCPU     1313.00
 NUMERICALLY INTEGRATED DENSITY     89.9990732094
 TTTTTTTTTTTTTTTTTTTTTTTTTTTTTT NUMDFT      TELAPSE     1321.54 TCPU     1319.58
 CYC  17 ETOT(AU) -3.177078466739E+03 DETOT -6.16E+00 tst  3.98E-01 PX  7.17E+00
 TTTTTTTTTTTTTTTTTTTTTTTTTTTTTT DIIS        TELAPSE     1321.54 TCPU     1319.58
 DIIS TEST: 0.31534E+03 AT SCF   CYCLE  17 - DIIS ACTIVE - HISTORY:    17 CYCLES
 TTTTTTTTTTTTTTTTTTTTTTTTTTTTTT FDIK        TELAPSE     1321.56 TCPU     1319.60
 POSSIBLY CONDUCTING STATE - EFERMI(AU)  1.4418237E+00 (RES. CHARGE  2.84E-14;IT. 12)
 TTTTTTTTTTTTTTTTTTTTTTTTTTTTTT PDIG        TELAPSE     1321.57 TCPU     1319.61
 CHARGE NORMALIZATION FACTOR   1.00000000
 TOTAL ATOMIC CHARGES:
  28.0404648  28.0404648   4.2659667   4.2659667  10.0078040  10.0078040
   2.6857646   2.6857646
 TTTTTTTTTTTTTTTTTTTTTTTTTTTTTT MOQGAD      TELAPSE     1321.60 TCPU     1319.64
 TTTTTTTTTTTTTTTTTTTTTTTTTTTTTT SHELLXN     TELAPSE     1388.32 TCPU     1386.33
 TTTTTTTTTTTTTTTTTTTTTTTTTTTTTT MONMO3      TELAPSE     1388.50 TCPU     1386.50
 NUMERICALLY INTEGRATED DENSITY     89.9990339345
 TTTTTTTTTTTTTTTTTTTTTTTTTTTTTT NUMDFT      TELAPSE     1395.06 TCPU     1393.06
 CYC  18 ETOT(AU) -3.194958439018E+03 DETOT -1.79E+01 tst  7.81E+00 PX  2.83E+01
 TTTTTTTTTTTTTTTTTTTTTTTTTTTTTT DIIS        TELAPSE     1395.06 TCPU     1393.07
 DIIS TEST: 0.44454E+03 AT SCF   CYCLE  18 - DIIS ACTIVE - HISTORY:    18 CYCLES
 TTTTTTTTTTTTTTTTTTTTTTTTTTTTTT FDIK        TELAPSE     1395.08 TCPU     1393.09
 POSSIBLY CONDUCTING STATE - EFERMI(AU)  1.4377359E+00 (RES. CHARGE  1.47E-11;IT.  8)
 TTTTTTTTTTTTTTTTTTTTTTTTTTTTTT PDIG        TELAPSE     1395.09 TCPU     1393.10
 CHARGE NORMALIZATION FACTOR   1.00000000
 TOTAL ATOMIC CHARGES:
  28.1767955  28.1767955   4.2732164   4.2732164  10.0077712  10.0077712
   2.5422169   2.5422169
 TTTTTTTTTTTTTTTTTTTTTTTTTTTTTT MOQGAD      TELAPSE     1395.12 TCPU     1393.12
 TTTTTTTTTTTTTTTTTTTTTTTTTTTTTT SHELLXN     TELAPSE     1461.82 TCPU     1459.80
 TTTTTTTTTTTTTTTTTTTTTTTTTTTTTT MONMO3      TELAPSE     1461.99 TCPU     1459.98
 NUMERICALLY INTEGRATED DENSITY     89.9990512740
 TTTTTTTTTTTTTTTTTTTTTTTTTTTTTT NUMDFT      TELAPSE     1468.56 TCPU     1466.54
 CYC  19 ETOT(AU) -3.182268113665E+03 DETOT  1.27E+01 tst  5.51E-01 PX  6.84E+00
 TTTTTTTTTTTTTTTTTTTTTTTTTTTTTT DIIS        TELAPSE     1468.57 TCPU     1466.55
 DIIS TEST: 0.38566E+03 AT SCF   CYCLE  19 - DIIS ACTIVE - HISTORY:    19 CYCLES
 TTTTTTTTTTTTTTTTTTTTTTTTTTTTTT FDIK        TELAPSE     1468.60 TCPU     1466.57
 POSSIBLY CONDUCTING STATE - EFERMI(AU)  1.4397013E+00 (RES. CHARGE  1.12E-11;IT.  8)
 TTTTTTTTTTTTTTTTTTTTTTTTTTTTTT PDIG        TELAPSE     1468.61 TCPU     1466.58
 CHARGE NORMALIZATION FACTOR   1.00000000
 TOTAL ATOMIC CHARGES:
  28.2532948  28.2532948   4.2804713   4.2804713  10.0077511  10.0077511
   2.4584828   2.4584828
 TTTTTTTTTTTTTTTTTTTTTTTTTTTTTT MOQGAD      TELAPSE     1468.64 TCPU     1466.60
 TTTTTTTTTTTTTTTTTTTTTTTTTTTTTT SHELLXN     TELAPSE     1535.51 TCPU     1533.42

 ::: DIPOLE MOMENT ALONG NON PERIODIC DIRECTIONS:
 ::: A.U.     (Z) -9.40753E+01
 ::: DEBYE         2.39116E+02

 +++ ENERGIES IN A.U. +++
 ::: EXT EL-POLE                                  -9.6547963128609E+03
 ::: EXT EL-SPHEROPOLE                             0.0000000000000E+00
 ::: BIELET ZONE E-E                               8.3975332180426E+03
 ::: TOTAL E-E                                    -1.2572630948183E+03
 ::: TOTAL E-N + N-E                              -2.3350481755424E+03
 ::: TOTAL N-N                                    -2.9844123048492E+03
 ::: KINETIC ENERGY                                3.5334788752419E+03
 ::: PSEUDO TOTAL   ENERGY                        -3.0432446999681E+03
 ::: VIRIAL COEFFICIENT                            1.0745407906639E+00
 TTTTTTTTTTTTTTTTTTTTTTTTTTTTTT MONMO3      TELAPSE     1535.69 TCPU     1533.60
 NUMERICALLY INTEGRATED DENSITY     89.9990523396
 TTTTTTTTTTTTTTTTTTTTTTTTTTTTTT NUMDFT      TELAPSE     1542.27 TCPU     1540.17
 CYC  20 ETOT(AU) -3.177930259969E+03 DETOT  4.34E+00 tst  6.90E-03 PX  6.84E+00

 == SCF ENDED - TOO MANY CYCLES            E(AU) -3.1779302599693E+03 CYCLES  20


 ENERGY EXPRESSION=HARTREE+FOCK EXCH*0.20000+(BECKE      EXCH)*0.80000+LYP        CORR


 TOTAL ENERGY(DFT)(AU)( 20) -3.1779302599693E+03 DE 4.3E+00 tester 6.9E-03
 TTTTTTTTTTTTTTTTTTTTTTTTTTTTTT EDFT        TELAPSE     1542.27 TCPU     1540.17
 EIGENVECTORS IN FORTRAN UNIT  8
 TTTTTTTTTTTTTTTTTTTTTTTTTTTTTT END         TELAPSE     1542.29 TCPU     1540.19
 EEEEEEEEEE TERMINATION  DATE 15 02 2022 TIME 17:21:51.1
Tue 15 Feb 2022 17:21:51 GMT
Contents of temporary directory:
total 14760
-rw-r--r--  1 brunocamino  admin   952320 15 Feb 17:20 diis_Fg
-rw-r--r--  1 brunocamino  admin   374976 15 Feb 17:19 diis_Fia1
-rw-r--r--  1 brunocamino  admin   395808 15 Feb 17:20 diis_Fia2
-rw-r--r--  1 brunocamino  admin        0 15 Feb 16:56 diis_Sk
-rw-r--r--  1 brunocamino  admin  1190112 15 Feb 17:19 fort.10
-rw-r--r--  1 brunocamino  admin    47616 15 Feb 17:20 fort.11
-rw-r--r--  1 brunocamino  admin     1723 15 Feb 16:56 fort.34
-rw-r--r--  1 brunocamino  admin    66880 15 Feb 16:56 fort.61
-rw-r--r--  1 brunocamino  admin    42752 15 Feb 16:56 fort.62
-rw-r--r--  1 brunocamino  admin  1190112 15 Feb 17:20 fort.8
-rw-r--r--  1 brunocamino  admin   298780 15 Feb 17:21 fort.9
-rw-r--r--  1 brunocamino  admin   109120 15 Feb 17:19 fort.95
-rw-r--r--  1 brunocamino  admin   773602 15 Feb 17:21 fort.98
wave function binary file /Users/brunocamino/Desktop/Imperial/cmsg_icl/ml-surface-adsorption/data/Cu_O_100_6_BSSE_sub.f9
file fort.98 saved as /Users/brunocamino/Desktop/Imperial/cmsg_icl/ml-surface-adsorption/data/Cu_O_100_6_BSSE_sub.f98
geometry input file fort.34 saved as /Users/brunocamino/Desktop/Imperial/cmsg_icl/ml-surface-adsorption/data/Cu_O_100_6_BSSE_sub.gui
temporary directory /Users/brunocamino/crystal/tmp removed
