date Tue 15 Feb 2022 18:48:13 GMT
hostname MacBook-Pro-3.local
system Darwin MacBook-Pro-3.local 21.3.0 Darwin Kernel Version 21.3.0: Wed Jan 5 21:37:58 PST 2022; root:xnu-8019.80.24~20/RELEASE_ARM64_T8101 arm64
user brunocamino
output data in /Users/brunocamino/Desktop/Imperial/cmsg_icl/ml-surface-adsorption/data/Cu_O_100_9_BSSE_sub.out
crystal executable in /Users/brunocamino/crystal
input data in /Users/brunocamino/Desktop/Imperial/cmsg_icl/ml-surface-adsorption/data/Cu_O_100_9_BSSE_sub.d12
temporary directory /Users/brunocamino/crystal/tmp
external geometry input from /Users/brunocamino/Desktop/Imperial/cmsg_icl/ml-surface-adsorption/data/Cu_O_100_9_BSSE_sub.gui
external geometry input saved in /Users/brunocamino/Desktop/Imperial/cmsg_icl/ml-surface-adsorption/data/Cu_O_100_9_BSSE_sub_inp.gui
Adsorption tests
EXTERNAL
EXTPRT
BASISSET
STO-3G
GHOSTS
2
3 4
DFT
B3LYP
XXLGRID
ENDDFT
TOLINTEG
5 5 5 5 10
SHRINK
6 12
MAXCYCLE
20
ENDSCF

         
 *******************************************************************************
 *                                                                             *
 *                               CRYSTAL17                                     *
 *                      public : 1.0.2 - March 1st, 2018                       *
 *                       HTTP://WWW.CRYSTAL.UNITO.IT                           *
 *                                                                             *
 *                              MAIN AUTHORS                                   *
 *                                                                             *
 *  R. DOVESI(1,11), V.R. SAUNDERS(2), C. ROETTI(1,11), R. ORLANDO(1,11),      *
 *  C.M. ZICOVICH-WILSON(1,3), F. PASCALE(4), B. CIVALLERI(1,11),              *
 *  K. DOLL(5), N.M. HARRISON(2,6), I.J. BUSH(7), Ph. D'ARCO(8),               *
 *  M. LLUNELL(9), M. CAUSA'(10), Y. NOEL(8), L. MASCHIO(1,11), A. ERBA(1,11)  *
 *  M. RE'RAT(14), S. CASASSA(1,11)                                            *
 *                                                                             *
 *        CONTRIBUTIONS TO THE CODE HAVE ALSO BEEN GIVEN BY                    *
 *                                                                             *
 *  M. FERRABONE(1,11), M. DE LA PIERRE(1,11), M. FERRERO(1,11),               *
 *  J. BAIMA(1,11), E. ALBANESE(1,11), M.F. PEINTINGER(12), R. BAST(13),       *
 *  B. KIRTMAN(15), V. LACIVITA(1,11), R. DEMICHELIS(1,16)                     *
 *  G. BRANDEBURG(17), S. SALUSTRO(1,11), G. SANSONE(1,11)                     *
 *  M.T. RUGGIERO(18)                                                          *
 *                                                                             *
 * (1) THEORETICAL CHEMISTRY GROUP - UNIVERSITA' DI TORINO - TORINO (ITALY)    *
 * (2) COMPUTATIONAL SCIENCE & ENGINEERING DEPARTMENT - STFC DARESBURY (UK)    *
 * (3) UNIVERSIDAD AUTONOMA DEL ESTADO DE MORELOS - CUERNAVACA (MEXICO)        *
 * (4) UNIVERSITE' DE LORRAINE - NANCY (FRANCE)                                *
 * (5) UNIVERSITAET STUTTGART- STUTTGART (GERMANY)                             *
 * (6) IMPERIAL COLLEGE - LONDON (UK)                                          *
 * (7) OXFORD E-RESEARCH CENTRE - OXFORD (UK)                                  *
 * (8) UPMC - SORBONNE UNIVERSITES - PARIS (FRANCE)                            *
 * (9) UNIVERSIDAD DE BARCELONA - BARCELONA (SPAIN)                            *
 *(10) UNIVERSITA' DI NAPOLI "FEDERICO II" - NAPOLI (ITALY)                    *
 *(11) NIS - NANOSTRUCTURED INTERFACES AND SURFACES - TORINO (ITALY)           *
 *(12) MPI FUER CHEMISCHE ENERGIEKONVERSION - MUELHEIM AN DER RUHR (GERMANY)   *
 *(13) UNIVERSITY OF TROMSO - TROMSO (NORWAY)                                  *
 *(14) UNIVERSITE' DE PAU ET DES PAYS DE L'ADOUR - PAU (FRANCE)                *
 *(15) UNIVERSITY OF CALIFORNIA SANTA BARBARA - SANTA BARBARA (USA)            *
 *(16) CURTIN UNIVERSITY - PERTH (AUSTRALIA)                                   *
 *(17) UNIVERSITY COLLEGE LONDON - LONDON (UK)                                 *
 *(18) CAMBRIDGE UNIVERSITY - CAMBRIDGE (UK)                                   *
 *                                                                             *
 *******************************************************************************
 EEEEEEEEEE STARTING  DATE 15 02 2022 TIME 18:48:13.9
 Adsorption tests                                                                

 GEOMETRY INPUT FROM EXTERNAL FILE (FORTRAN UNIT 34)
 2D - SLAB    

 *******************************************************************************
 LATTICE PARAMETERS  (ANGSTROMS AND DEGREES) - PRIMITIVE CELL
       A          B          C        ALPHA      BETA     GAMMA        VOLUME
    2.56062    2.56062  500.00000    90.00000  90.00000  90.00000      6.556769
 INFORMATION **** CHKGRP **** SPGR WITH NO INVERSION

 NUMBER OF IRREDUCIBLE ATOMS IN THE CELL:    4

 CARTESIAN COORDINATES (ANGSTROM) - IRREDUCIBLE ATOMS AND SYMMETRY RELATED

 AT.IRR.  AT  AT.N.          X                   Y                   Z
     1     1    29    0.000000000000E+00  0.000000000000E+00  1.176910000000E+01
     2     2    29    1.280309458327E+00  1.280309458327E+00  1.357973000000E+01
     3     3     8    1.280309458327E+00  0.000000000000E+00  9.769100000000E+00
     4     4     8    0.000000000000E+00  1.280309458327E+00  1.557973000000E+01

 SYMMETRY CHANGED DURING OLD RUN :  INFORMATION ON SPACE GROUP LOST 
 NUMBER OF SYMMETRY OPERATORS         :    4
 *******************************************************************************
 LATTICE PARAMETERS (ANGSTROMS AND DEGREES) - BOHR = 0.5291772083 ANGSTROM
 PRIMITIVE CELL
         A              B              C           ALPHA      BETA       GAMMA 
     2.56061892     2.56061892   500.00000000    90.000000  90.000000  90.000000
 *******************************************************************************
 ATOMS IN THE ASYMMETRIC UNIT    4 - ATOMS IN THE UNIT CELL:    4
     ATOM                 X/A                 Y/B             Z(ANGSTROM)
 *******************************************************************************
      1 T  29 CU    0.000000000000E+00  0.000000000000E+00  1.176910000000E+01
      2 T  29 CU   -4.999999999992E-01 -4.999999999992E-01  1.357973000000E+01
      3 T   8 O    -4.999999999992E-01  0.000000000000E+00  9.769100000000E+00
      4 T   8 O     3.061616997881E-17 -4.999999999992E-01  1.557973000000E+01

 T = ATOM BELONGING TO THE ASYMMETRIC UNIT
 *******************************************************************************
 * GEOMETRY EDITING - INPUT COORDINATES ARE GIVEN IN ANGSTROM         
 *******************************************************************************

 GEOMETRY NOW FULLY CONSISTENT WITH THE GROUP

 GCALCO - MAX INDICES DIRECT LATTICE VECTOR    83    83     0
 NO.OF VECTORS CREATED 6999 STARS  686 RMAX   228.24897 BOHR

 GEOMETRY FOR WAVE FUNCTION - DIMENSIONALITY OF THE SYSTEM    2
 (NON PERIODIC DIRECTION: LATTICE PARAMETER FORMALLY SET TO 500)
 *******************************************************************************
 LATTICE PARAMETERS (ANGSTROMS AND DEGREES) - BOHR = 0.5291772083 ANGSTROM
 PRIMITIVE CELL
         A              B              C           ALPHA      BETA       GAMMA 
     2.56061892     2.56061892   500.00000000    90.000000  90.000000  90.000000
 *******************************************************************************
 ATOMS IN THE ASYMMETRIC UNIT    4 - ATOMS IN THE UNIT CELL:    4
     ATOM                 X/A                 Y/B             Z(ANGSTROM)
 *******************************************************************************
      1 T  29 CU    0.000000000000E+00  0.000000000000E+00  1.176910000000E+01
      2 T  29 CU   -5.000000000000E-01 -5.000000000000E-01  1.357973000000E+01
      3 T   8 O    -5.000000000000E-01  0.000000000000E+00  9.769100000000E+00
      4 T   8 O     0.000000000000E+00 -5.000000000000E-01  1.557973000000E+01

 T = ATOM BELONGING TO THE ASYMMETRIC UNIT

 ****    4 SYMMOPS - TRANSLATORS IN FRACTIONAL UNITS
 **** MATRICES AND TRANSLATORS IN THE CRYSTALLOGRAPHIC REFERENCE FRAME
   V INV                    ROTATION MATRICES                   TRANSLATORS
   1   1  1.00  0.00  0.00  0.00  1.00  0.00  0.00  0.00  1.00  0.00  0.00  0.00
   2   2 -1.00  0.00  0.00  0.00 -1.00  0.00  0.00  0.00  1.00  0.00  0.00  0.00
   3   3 -1.00  0.00  0.00  0.00  1.00  0.00  0.00  0.00  1.00  0.00  0.00  0.00
   4   4  1.00 -0.00  0.00  0.00 -1.00  0.00  0.00  0.00  1.00  0.00  0.00  0.00

 DIRECT LATTICE VECTORS CARTESIAN COMPONENTS (ANGSTROM)
          X                    Y                    Z
   0.256061891665E+01   0.000000000000E+00   0.000000000000E+00
  -0.156792688006E-15   0.256061891665E+01   0.000000000000E+00
   0.000000000000E+00   0.000000000000E+00   0.500000000000E+03


 CARTESIAN COORDINATES - PRIMITIVE CELL
 *******************************************************************************
 *      ATOM          X(ANGSTROM)         Y(ANGSTROM)         Z(ANGSTROM)
 *******************************************************************************
    1    29 CU    0.000000000000E+00  0.000000000000E+00  1.176910000000E+01
    2    29 CU    1.280309458325E+00  1.280309458325E+00  1.357973000000E+01
    3     8 O     1.280309458325E+00  0.000000000000E+00  9.769100000000E+00
    4     8 O    -7.839634400300E-17  1.280309458325E+00  1.557973000000E+01

 *******************************************************************************
 STARTING BASIS SET HANDLING 
 *******************************************************************************

 Loading internal basis set: STO-3G              

 Please cite in your publication:
 H - Ne: W.J. Hehre, R.F. Stewart and J.A. Pople, J. Chem. Phys. 2657 (1969).   
                                                                                
                                                                                
                    
 Na - Ar: W.J. Hehre, R. Ditchfield, R.F. Stewart, J.A. Pople, J. Chem. Phys.  2
 769 (1970).                                                                    
                                                                                
                    
 K,Ca: W.J. Pietro, B.A. Levy, W.J. Hehre and R.F. Stewart, Inorg. Chem., 1980, 
 19 (8), pp 2225-2229                                                           
                                                                                
                    
 Ga-Kr: J. Am. Chem. Soc. 19, 2225 (1980).                                      
                                                                                
                                                                                
                    
 Sc-Zn, Y-Cd: W.J. Pietro and W.J. Hehre, J. Comp. Chem. 4, 241 (1983).         
                                                                                
                                                                                
                    

 *******************************************************************************
 LOCAL ATOMIC FUNCTIONS BASIS SET
 *******************************************************************************
   ATOM   X(AU)   Y(AU)   Z(AU)  N. TYPE  EXPONENT  S COEF   P COEF   D/F/G COEF
 *******************************************************************************
   1 CU   0.000   0.000  22.240
                                  1 S  
                                         1.802E+03 1.543E-01 0.000E+00 0.000E+00
                                         3.282E+02 5.353E-01 0.000E+00 0.000E+00
                                         8.882E+01 4.446E-01 0.000E+00 0.000E+00
                                  2 S  
                                         1.441E+02-9.997E-02 0.000E+00 0.000E+00
                                         3.349E+01 3.995E-01 0.000E+00 0.000E+00
                                         1.089E+01 7.001E-01 0.000E+00 0.000E+00
                                  3 S  
                                         1.131E+01-2.278E-01 0.000E+00 0.000E+00
                                         3.449E+00 2.175E-01 0.000E+00 0.000E+00
                                         1.331E+00 9.167E-01 0.000E+00 0.000E+00
                                  4 S  
                                         6.309E-01-3.088E-01 0.000E+00 0.000E+00
                                         2.329E-01 1.961E-02 0.000E+00 0.000E+00
                                         1.028E-01 1.131E+00 0.000E+00 0.000E+00
                           5-     7 P  
                                         1.441E+02 0.000E+00 1.559E-01 0.000E+00
                                         3.349E+01 0.000E+00 6.077E-01 0.000E+00
                                         1.089E+01 0.000E+00 3.920E-01 0.000E+00
                           8-    10 P  
                                         1.131E+01 0.000E+00 4.952E-03 0.000E+00
                                         3.449E+00 0.000E+00 5.778E-01 0.000E+00
                                         1.331E+00 0.000E+00 4.846E-01 0.000E+00
                          11-    13 P  
                                         6.309E-01 0.000E+00-1.215E-01 0.000E+00
                                         2.329E-01 0.000E+00 5.715E-01 0.000E+00
                                         1.028E-01 0.000E+00 5.499E-01 0.000E+00
                          14-    18 D  
                                         9.648E+00 0.000E+00 0.000E+00 2.198E-01
                                         2.943E+00 0.000E+00 0.000E+00 6.555E-01
                                         1.135E+00 0.000E+00 0.000E+00 2.866E-01
   2 CU   2.419   2.419  25.662
   3 O    2.419   0.000  18.461
                                 37 S  
                                         1.307E+02 1.543E-01 0.000E+00 0.000E+00
                                         2.381E+01 5.353E-01 0.000E+00 0.000E+00
                                         6.444E+00 4.446E-01 0.000E+00 0.000E+00
                                 38 S  
                                         5.033E+00-9.997E-02 0.000E+00 0.000E+00
                                         1.170E+00 3.995E-01 0.000E+00 0.000E+00
                                         3.804E-01 7.001E-01 0.000E+00 0.000E+00
                          39-    41 P  
                                         5.033E+00 0.000E+00 1.559E-01 0.000E+00
                                         1.170E+00 0.000E+00 6.077E-01 0.000E+00
                                         3.804E-01 0.000E+00 3.920E-01 0.000E+00
   4 O   -0.000   2.419  29.441

 *******************************************************************************
 FINISHED BASIS SET HANDLING 
 *******************************************************************************

 INFORMATION **** SET_MPP **** PCRYSTAL CALCULATION
 INFORMATION **** READM2 **** NEW DEFAULT: FOCK/KS MATRIX MIXING SET TO 30 %
 INFORMATION **** READM2 **** NEW DEFAULT: FULL DIRECT SCF MODE
 INFORMATION **** READM2 **** NEW DEFAULT: COULOMB BIPOLAR BUFFER SET TO 32 Mb
 INFORMATION **** READM2 **** NEW DEFAULT: EXCHANGE BIPOLAR BUFFER SET TO 32 Mb

 *******************************************************************************
 * ATOMS TRANSFORMED INTO GHOSTS :   2
   3(  8)   4(  8)
 SYMMETRY MAY BE BROKEN

 *******************************************************************************
 NEW DEFAULT: DFT INTEGRATION GRID INCREASED TO XLGRID
 NEW DEFAULT: DIIS ACCELERATOR ACTIVE
 USE KEYWORD NODIIS TO TURN IT OFF
 *******************************************************************************

 INFORMATION **** TOLINTEG **** COULOMB AND EXCHANGE SERIES TOLERANCES MODIFIED
 INFORMATION **** MAXCYCLE **** MAX NUMBER OF SCF CYCLES SET TO          20

 GHOST ATOMS - REMOVAL OF NUCLEAR CHARGE AND ELECTRONS
 TOTAL NUCLEAR CHARGE        5.800000E+01
 TOTAL ELECTRONIC CHARGE     5.800000E+01
 *******************************************************************************
 N. OF ATOMS PER CELL         4  COULOMB OVERLAP TOL         (T1) 10**   -5
 NUMBER OF SHELLS            22  COULOMB PENETRATION TOL     (T2) 10**   -5
 NUMBER OF AO                46  EXCHANGE OVERLAP TOL        (T3) 10**   -5
 N. OF ELECTRONS PER CELL    58  EXCHANGE PSEUDO OVP (F(G))  (T4) 10**   -5
 CORE ELECTRONS PER CELL     36  EXCHANGE PSEUDO OVP (P(G))  (T5) 10**  -10
 N. OF SYMMETRY OPERATORS     4  POLE ORDER IN MONO ZONE                  4
 *******************************************************************************
 TYPE OF CALCULATION :  RESTRICTED CLOSED SHELL
 KOHN-SHAM HAMILTONIAN

 (EXCHANGE)[CORRELATION] FUNCTIONAL:(BECKE 88)[LEE-YANG-PARR]

 NON-LOCAL WEIGHTING FACTOR (EXCHANGE) =           0.9000
 NON-LOCAL WEIGHTING FACTOR [CORRELATION] =        0.8100

 HYBRID EXCHANGE - PERCENTAGE OF FOCK EXCHANGE    20.0000

 CAPPA:IS1  6;IS2  6;IS3  1; K PTS MONK NET  16; SYMMOPS:K SPACE   8;G SPACE   4

 *******************************************************************************
 MAX NUMBER OF SCF CYCLES      20  CONVERGENCE ON DELTAP        10**-16
 WEIGHT OF F(I) IN F(I+1)      30% CONVERGENCE ON ENERGY        10**- 6
 SHRINK. FACT.(MONKH.)    6  6  1  NUMBER OF K POINTS IN THE IBZ     16
 SHRINKING FACTOR(GILAT NET)   12  NUMBER OF K POINTS(GILAT NET)     49
 *******************************************************************************
 *** K POINTS COORDINATES (OBLIQUE COORDINATES IN UNITS OF IS =  6)
   1-R(  0  0  0)   2-C(  1  0  0)   3-C(  2  0  0)   4-R(  3  0  0)
   5-C(  0  1  0)   6-C(  1  1  0)   7-C(  2  1  0)   8-C(  3  1  0)
   9-C(  0  2  0)  10-C(  1  2  0)  11-C(  2  2  0)  12-C(  3  2  0)
  13-R(  0  3  0)  14-C(  1  3  0)  15-C(  2  3  0)  16-R(  3  3  0)

 DIRECT LATTICE VECTORS COMPON. (A.U.)     RECIP. LATTICE VECTORS COMPON. (A.U.) 
        X            Y            Z              X            Y            Z
    4.8388685    0.0000000    0.0000000      1.2984823    0.0000000    0.0000000
   -0.0000000    4.8388685    0.0000000      0.0000000    1.2984823    0.0000000
    0.0000000    0.0000000  944.8630670      0.0000000    0.0000000    0.0066498

 DISK SPACE FOR EIGENVECTORS (FTN 10)       59248 REALS

 SYMMETRY ADAPTION OF THE BLOCH FUNCTIONS ENABLED
 TTTTTTTTTTTTTTTTTTTTTTTTTTTTTT gordsh1     TELAPSE        0.01 TCPU        0.01

 MATRIX SIZE: P(G)   26898, F(G)    5428, P(G) IRR    4775, F(G) IRR    2162
 MAX G-VECTOR INDEX FOR 1- AND 2-ELECTRON INTEGRALS  77

 TTTTTTTTTTTTTTTTTTTTTTTTTTTTTT INPUT       TELAPSE        0.01 TCPU        0.01

 NEIGHBORS OF THE NON-EQUIVALENT ATOMS

 N = NUMBER OF NEIGHBORS AT DISTANCE R
    ATOM  N     R/ANG      R/AU   NEIGHBORS (ATOM LABELS AND CELL INDICES)
   1 CU   2     2.3747     4.4875    3 XX   0 0 0    3 XX  -1 0 0
   1 CU   4     2.5606     4.8389    2 CU   0 0 0    2 CU  -1 0 0    2 CU   0-1 0
                                     2 CU  -1-1 0
   1 CU   4     2.5606     4.8389    1 CU  -1 0 0    1 CU   1 0 0    1 CU   0-1 0
                                     1 CU   0 1 0
   1 CU   4     3.4923     6.5994    3 XX   0 1 0    3 XX   0-1 0    3 XX  -1-1 0
                                     3 XX  -1 1 0
   1 CU   4     3.6213     6.8432    1 CU  -1-1 0    1 CU   1 1 0    1 CU  -1 1 0
                                     1 CU   1-1 0
   1 CU   2     4.0200     7.5966    4 XX   0 0 0    4 XX   0-1 0

   2 CU   2     2.3747     4.4875    4 XX   0 0 0    4 XX   1 0 0
   2 CU   4     2.5606     4.8389    1 CU   0 0 0    1 CU   1 0 0    1 CU   0 1 0
                                     1 CU   1 1 0
   2 CU   4     2.5606     4.8389    2 CU  -1 0 0    2 CU   1 0 0    2 CU   0-1 0
                                     2 CU   0 1 0
   2 CU   4     3.4923     6.5994    4 XX   0-1 0    4 XX   0 1 0    4 XX   1 1 0
                                     4 XX   1-1 0
   2 CU   4     3.6213     6.8432    2 CU  -1-1 0    2 CU   1 1 0    2 CU  -1 1 0
                                     2 CU   1-1 0
   2 CU   2     4.0200     7.5966    3 XX   0 0 0    3 XX   0 1 0

   3 XX   2     2.3747     4.4875    1 CU   0 0 0    1 CU   1 0 0
   3 XX   4     2.5606     4.8389    3 XX  -1 0 0    3 XX   1 0 0    3 XX   0-1 0
                                     3 XX   0 1 0
   3 XX   4     3.4923     6.5994    1 CU   0-1 0    1 CU   0 1 0    1 CU   1 1 0
                                     1 CU   1-1 0
   3 XX   4     3.6213     6.8432    3 XX  -1-1 0    3 XX   1 1 0    3 XX  -1 1 0
                                     3 XX   1-1 0
   3 XX   2     4.0200     7.5966    2 CU   0 0 0    2 CU   0-1 0
   3 XX   2     4.3304     8.1834    1 CU  -1 0 0    1 CU   2 0 0

   4 XX   2     2.3747     4.4875    2 CU   0 0 0    2 CU  -1 0 0
   4 XX   4     2.5606     4.8389    4 XX  -1 0 0    4 XX   1 0 0    4 XX   0-1 0
                                     4 XX   0 1 0
   4 XX   4     3.4923     6.5994    2 CU   0 1 0    2 CU   0-1 0    2 CU  -1-1 0
                                     2 CU  -1 1 0
   4 XX   4     3.6213     6.8432    4 XX  -1-1 0    4 XX   1 1 0    4 XX  -1 1 0
                                     4 XX   1-1 0
   4 XX   2     4.0200     7.5966    1 CU   0 0 0    1 CU   0 1 0
   4 XX   2     4.3304     8.1834    2 CU   1 0 0    2 CU  -2 0 0


 SYMMETRY ALLOWED INTERNAL DEGREE(S) OF FREEDOM:   3
 TTTTTTTTTTTTTTTTTTTTTTTTTTTTTT SYMM        TELAPSE        0.01 TCPU        0.01
 TTTTTTTTTTTTTTTTTTTTTTTTTTTTTT INT_SCREEN  TELAPSE        0.01 TCPU        0.01
 INFORMATION **** EXCBUF **** EXCH. BIPO BUFFER: WORDS USED =      132714

 DFT PARAMETERS

     ATOM       ELECTRONS   NET CHARGE   R(ANGSTROM)
   1  29  CU     29.0000      0.0000     1.28000000
   3   0  XX      0.0000      0.0000     0.50000000

 SIZE OF GRID=      63526
 TTTTTTTTTTTTTTTTTTTTTTTTTTTTTT MAKE_GRID2  TELAPSE        0.40 TCPU        0.39
 BECKE WEIGHT FUNCTION
 RADSAFE =     2.00
 TOLERANCES - DENSITY:10**- 6; POTENTIAL:10**- 9; GRID WGT:10**-14

 RADIAL INTEGRATION  - INTERVALS (POINTS,UPPER LIMIT):            1( 99,  4.0*R)

 ANGULAR INTEGRATION - INTERVALS (ACCURACY LEVEL [N. POINTS] UPPER LIMIT):
  1(  6[ 146]   0.2)  2( 11[ 302]   0.5)  3( 14[ 590]   0.9)  4( 18[1454]   3.5)
  5( 14[ 590]9999.0)

 GHOST ATOMS - REMOVAL OF NUCLEAR CHARGE AND ELECTRONS
 TOTAL NUCLEAR CHARGE        5.800000E+01
 TOTAL ELECTRONIC CHARGE     5.800000E+01
 TTTTTTTTTTTTTTTTTTTTTTTTTTTTTT INT_CALC    TELAPSE        0.40 TCPU        0.40
 EEEEEEEEEE INT_CALC TERMINATION  DATE 15 02 2022 TIME 18:48:14.3

 *******************************************************************************
 Adsorption tests                                                                
 CRYSTAL - SCF - TYPE OF CALCULATION :  RESTRICTED CLOSED SHELL
 *******************************************************************************

 CAPPA:IS1  6;IS2  6;IS3  1; K PTS MONK NET  16; SYMMOPS:K SPACE   8;G SPACE   4

 TTTTTTTTTTTTTTTTTTTTTTTTTTTTTT SDIK        TELAPSE        0.40 TCPU        0.40

 AAAAAAAAAAAAAAAAAAAAAAAAAAAAAAAAAAAAAAAAAAAAAAAAAAAAAAAAAAAAAAAAAAAAAAAAAAAAAAA
         ATOMIC WAVEFUNCTION(S)


 NUCLEAR CHARGE 29.0  SYMMETRY SPECIES            S    P    D
 N. ELECTRONS   29.0  NUMBER OF PRIMITIVE GTOS   12    9    3
                      NUMBER OF CONTRACTED GTOS   4    3    1
                      NUMBER OF CLOSED SHELLS     4    2    0
                      OPEN SHELL OCCUPATION       0    0    9

  ZNUC SCFIT  TOTAL HF ENERGY   KINETIC ENERGY   VIRIAL THEOREM ACCURACY
  29.0   5   -1.619844227E+03  1.626147454E+03 -1.996123828E+00  5.2E-07

 AAAAAAAAAAAAAAAAAAAAAAAAAAAAAAAAAAAAAAAAAAAAAAAAAAAAAAAAAAAAAAAAAAAAAAAAAAAAAAA

 CHARGE NORMALIZATION FACTOR   1.00000000
 TOTAL ATOMIC CHARGES:
  29.0000000  29.0000000   0.0000000   0.0000000
 TTTTTTTTTTTTTTTTTTTTTTTTTTTTTT MOQGAD      TELAPSE        0.41 TCPU        0.41
 TTTTTTTTTTTTTTTTTTTTTTTTTTTTTT SHELLXN     TELAPSE       11.08 TCPU       10.95
 TTTTTTTTTTTTTTTTTTTTTTTTTTTTTT MONMO3      TELAPSE       11.12 TCPU       10.99
 NUMERICALLY INTEGRATED DENSITY     57.9999615314
 TTTTTTTTTTTTTTTTTTTTTTTTTTTTTT NUMDFT      TELAPSE       11.78 TCPU       11.64
 CYC   0 ETOT(AU) -3.242303983800E+03 DETOT -3.24E+03 tst  0.00E+00 PX  1.00E+00
 TTTTTTTTTTTTTTTTTTTTTTTTTTTTTT DIIS        TELAPSE       11.78 TCPU       11.64
 TTTTTTTTTTTTTTTTTTTTTTTTTTTTTT FDIK        TELAPSE       11.79 TCPU       11.65
 POSSIBLY CONDUCTING STATE - EFERMI(AU)  7.8122835E-01 (RES. CHARGE  4.28E-10;IT. 16)
 TTTTTTTTTTTTTTTTTTTTTTTTTTTTTT PDIG        TELAPSE       11.79 TCPU       11.65
 CHARGE NORMALIZATION FACTOR   1.00000000
 TOTAL ATOMIC CHARGES:
  28.3050370  28.3050370   0.6949630   0.6949630
 TTTTTTTTTTTTTTTTTTTTTTTTTTTTTT MOQGAD      TELAPSE       11.80 TCPU       11.66
 TTTTTTTTTTTTTTTTTTTTTTTTTTTTTT SHELLXN     TELAPSE       22.45 TCPU       22.31
 TTTTTTTTTTTTTTTTTTTTTTTTTTTTTT MONMO3      TELAPSE       22.49 TCPU       22.35
 NUMERICALLY INTEGRATED DENSITY     57.9996898186
 TTTTTTTTTTTTTTTTTTTTTTTTTTTTTT NUMDFT      TELAPSE       24.15 TCPU       24.01
 CYC   1 ETOT(AU) -3.226147238068E+03 DETOT  1.62E+01 tst  0.00E+00 PX  1.00E+00
 TTTTTTTTTTTTTTTTTTTTTTTTTTTTTT DIIS        TELAPSE       24.16 TCPU       24.01
 DIIS TEST: 0.77284E+01 AT SCF   CYCLE   1 - MIX   30 %
 TTTTTTTTTTTTTTTTTTTTTTTTTTTTTT FDIK        TELAPSE       24.16 TCPU       24.02
 POSSIBLY CONDUCTING STATE - EFERMI(AU) -2.1729392E+00 (RES. CHARGE  3.72E-12;IT. 10)
 TTTTTTTTTTTTTTTTTTTTTTTTTTTTTT PDIG        TELAPSE       24.16 TCPU       24.02
 CHARGE NORMALIZATION FACTOR   1.00000000
 TOTAL ATOMIC CHARGES:
  29.0188909  28.9811216  -0.0000092  -0.0000034
 TTTTTTTTTTTTTTTTTTTTTTTTTTTTTT MOQGAD      TELAPSE       24.17 TCPU       24.03
 TTTTTTTTTTTTTTTTTTTTTTTTTTTTTT SHELLXN     TELAPSE       34.85 TCPU       34.71
 TTTTTTTTTTTTTTTTTTTTTTTTTTTTTT MONMO3      TELAPSE       34.89 TCPU       34.74
 NUMERICALLY INTEGRATED DENSITY     57.9999988304
 TTTTTTTTTTTTTTTTTTTTTTTTTTTTTT NUMDFT      TELAPSE       36.54 TCPU       36.40
 CYC   2 ETOT(AU) -3.238547698873E+03 DETOT -1.24E+01 tst  2.71E+01 PX  1.15E+01
 TTTTTTTTTTTTTTTTTTTTTTTTTTTTTT DIIS        TELAPSE       36.55 TCPU       36.40
 DIIS TEST: 0.10451E+01 AT SCF   CYCLE   2 - DIIS ACTIVE - HISTORY:     2 CYCLES
 TTTTTTTTTTTTTTTTTTTTTTTTTTTTTT FDIK        TELAPSE       36.55 TCPU       36.40
 POSSIBLY CONDUCTING STATE - EFERMI(AU)  8.6486987E-01 (RES. CHARGE  3.65E-11;IT. 12)
 TTTTTTTTTTTTTTTTTTTTTTTTTTTTTT PDIG        TELAPSE       36.55 TCPU       36.40
 CHARGE NORMALIZATION FACTOR   1.00000000
 TOTAL ATOMIC CHARGES:
  27.4201634  27.5299389   1.5262636   1.5236341
 TTTTTTTTTTTTTTTTTTTTTTTTTTTTTT MOQGAD      TELAPSE       36.56 TCPU       36.41
 TTTTTTTTTTTTTTTTTTTTTTTTTTTTTT SHELLXN     TELAPSE       47.21 TCPU       47.05
 TTTTTTTTTTTTTTTTTTTTTTTTTTTTTT MONMO3      TELAPSE       47.25 TCPU       47.09
 NUMERICALLY INTEGRATED DENSITY     57.9996796088
 TTTTTTTTTTTTTTTTTTTTTTTTTTTTTT NUMDFT      TELAPSE       48.92 TCPU       48.75
 CYC   3 ETOT(AU) -3.215040308407E+03 DETOT  2.35E+01 tst  4.08E-01 PX  1.16E+01
 TTTTTTTTTTTTTTTTTTTTTTTTTTTTTT DIIS        TELAPSE       48.93 TCPU       48.75
 DIIS TEST: 0.25354E+02 AT SCF   CYCLE   3 - DIIS ACTIVE - HISTORY:     3 CYCLES
 TTTTTTTTTTTTTTTTTTTTTTTTTTTTTT FDIK        TELAPSE       48.93 TCPU       48.76
 POSSIBLY CONDUCTING STATE - EFERMI(AU)  8.7933102E-01 (RES. CHARGE  2.29E-11;IT. 14)
 TTTTTTTTTTTTTTTTTTTTTTTTTTTTTT PDIG        TELAPSE       48.93 TCPU       48.76
 CHARGE NORMALIZATION FACTOR   1.00000000
 TOTAL ATOMIC CHARGES:
  26.9844273  27.7714581   1.6207140   1.6234005
 TTTTTTTTTTTTTTTTTTTTTTTTTTTTTT MOQGAD      TELAPSE       48.94 TCPU       48.77
 TTTTTTTTTTTTTTTTTTTTTTTTTTTTTT SHELLXN     TELAPSE       59.68 TCPU       59.45
 TTTTTTTTTTTTTTTTTTTTTTTTTTTTTT MONMO3      TELAPSE       59.72 TCPU       59.48
 NUMERICALLY INTEGRATED DENSITY     57.9996780388
 TTTTTTTTTTTTTTTTTTTTTTTTTTTTTT NUMDFT      TELAPSE       61.39 TCPU       61.15
 CYC   4 ETOT(AU) -3.213351163639E+03 DETOT  1.69E+00 tst  7.24E-04 PX  2.58E-01
 TTTTTTTTTTTTTTTTTTTTTTTTTTTTTT DIIS        TELAPSE       61.39 TCPU       61.15
 DIIS TEST: 0.25454E+02 AT SCF   CYCLE   4 - DIIS ACTIVE - HISTORY:     4 CYCLES
 TTTTTTTTTTTTTTTTTTTTTTTTTTTTTT FDIK        TELAPSE       61.39 TCPU       61.16
 INSULATING STATE
 TOP OF VALENCE BANDS -    BAND     29; K    1; EIG  6.4754372E-01 AU
 BOTTOM OF VIRTUAL BANDS - BAND     30; K   16; EIG  6.4975376E-01 AU
 INDIRECT ENERGY BAND GAP:   0.0601 eV
 BOTTOM OF VIRTUAL BANDS - BAND     30; K    1; EIG  6.7701380E-01 AU
 TTTTTTTTTTTTTTTTTTTTTTTTTTTTTT PDIG        TELAPSE       61.40 TCPU       61.16
 CHARGE NORMALIZATION FACTOR   1.00000000
 TOTAL ATOMIC CHARGES:
  31.7158530  26.0445589   0.1246274   0.1149607
 TTTTTTTTTTTTTTTTTTTTTTTTTTTTTT MOQGAD      TELAPSE       61.40 TCPU       61.17
 TTTTTTTTTTTTTTTTTTTTTTTTTTTTTT SHELLXN     TELAPSE       72.08 TCPU       71.85
 TTTTTTTTTTTTTTTTTTTTTTTTTTTTTT MONMO3      TELAPSE       72.12 TCPU       71.88
 NUMERICALLY INTEGRATED DENSITY     57.9997124710
 TTTTTTTTTTTTTTTTTTTTTTTTTTTTTT NUMDFT      TELAPSE       73.85 TCPU       73.59
 CYC   5 ETOT(AU) -3.223319636086E+03 DETOT -9.97E+00 tst  1.66E+00 PX  1.68E+00
 TTTTTTTTTTTTTTTTTTTTTTTTTTTTTT DIIS        TELAPSE       73.85 TCPU       73.59
 DIIS TEST: 0.32047E+02 AT SCF   CYCLE   5 - DIIS ACTIVE - HISTORY:     5 CYCLES
 TTTTTTTTTTTTTTTTTTTTTTTTTTTTTT FDIK        TELAPSE       73.85 TCPU       73.60
 INSULATING STATE
 TOP OF VALENCE BANDS -    BAND     29; K    1; EIG  6.0683950E-01 AU
 BOTTOM OF VIRTUAL BANDS - BAND     30; K   16; EIG  6.0835628E-01 AU
 INDIRECT ENERGY BAND GAP:   0.0413 eV
 BOTTOM OF VIRTUAL BANDS - BAND     30; K    1; EIG  6.3975344E-01 AU
 TTTTTTTTTTTTTTTTTTTTTTTTTTTTTT PDIG        TELAPSE       73.86 TCPU       73.60
 CHARGE NORMALIZATION FACTOR   1.00000000
 TOTAL ATOMIC CHARGES:
  26.0277998  31.7605454   0.1025837   0.1090712
 TTTTTTTTTTTTTTTTTTTTTTTTTTTTTT MOQGAD      TELAPSE       73.87 TCPU       73.61
 TTTTTTTTTTTTTTTTTTTTTTTTTTTTTT SHELLXN     TELAPSE       84.55 TCPU       84.28
 TTTTTTTTTTTTTTTTTTTTTTTTTTTTTT MONMO3      TELAPSE       84.58 TCPU       84.32
 NUMERICALLY INTEGRATED DENSITY     57.9997165587
 TTTTTTTTTTTTTTTTTTTTTTTTTTTTTT NUMDFT      TELAPSE       86.24 TCPU       85.98
 CYC   6 ETOT(AU) -3.223658539110E+03 DETOT -3.39E-01 tst  1.57E-01 PX  1.26E+00
 TTTTTTTTTTTTTTTTTTTTTTTTTTTTTT DIIS        TELAPSE       86.24 TCPU       85.98
 DIIS TEST: 0.32703E+02 AT SCF   CYCLE   6 - DIIS ACTIVE - HISTORY:     6 CYCLES
 TTTTTTTTTTTTTTTTTTTTTTTTTTTTTT FDIK        TELAPSE       86.25 TCPU       85.98
 INSULATING STATE
 TOP OF VALENCE BANDS -    BAND     29; K   13; EIG  5.9396374E-02 AU
 TOP OF VALENCE BANDS -    BAND     29; K    1; EIG  5.2184953E-02 AU
 BOTTOM OF VIRTUAL BANDS - BAND     30; K    6; EIG  6.0800835E-02 AU
 INDIRECT ENERGY BAND GAP:   0.0382 eV
 BOTTOM OF VIRTUAL BANDS - BAND     30; K    1; EIG  7.0625852E-02 AU
 TTTTTTTTTTTTTTTTTTTTTTTTTTTTTT PDIG        TELAPSE       86.25 TCPU       85.99
 CHARGE NORMALIZATION FACTOR   1.00000000
 TOTAL ATOMIC CHARGES:
  31.8039465  26.1928327   0.0045621  -0.0013413
 TTTTTTTTTTTTTTTTTTTTTTTTTTTTTT MOQGAD      TELAPSE       86.26 TCPU       85.99
 TTTTTTTTTTTTTTTTTTTTTTTTTTTTTT SHELLXN     TELAPSE       96.93 TCPU       96.66
 TTTTTTTTTTTTTTTTTTTTTTTTTTTTTT MONMO3      TELAPSE       96.96 TCPU       96.70
 NUMERICALLY INTEGRATED DENSITY     57.9998163123
 TTTTTTTTTTTTTTTTTTTTTTTTTTTTTT NUMDFT      TELAPSE       98.63 TCPU       98.36
 CYC   7 ETOT(AU) -3.232019887367E+03 DETOT -8.36E+00 tst  1.45E+00 PX  5.71E+00
 TTTTTTTTTTTTTTTTTTTTTTTTTTTTTT DIIS        TELAPSE       98.63 TCPU       98.36
 DIIS TEST: 0.10081E+02 AT SCF   CYCLE   7 - DIIS ACTIVE - HISTORY:     7 CYCLES
 TTTTTTTTTTTTTTTTTTTTTTTTTTTTTT FDIK        TELAPSE       98.63 TCPU       98.37
 POSSIBLY CONDUCTING STATE - EFERMI(AU)  1.4208223E-01 (RES. CHARGE  5.68E-14;IT. 12)
 TTTTTTTTTTTTTTTTTTTTTTTTTTTTTT PDIG        TELAPSE       98.63 TCPU       98.37
 CHARGE NORMALIZATION FACTOR   1.00000000
 TOTAL ATOMIC CHARGES:
  24.5092559  33.4705995  -0.0007257   0.0208702
 TTTTTTTTTTTTTTTTTTTTTTTTTTTTTT MOQGAD      TELAPSE       98.64 TCPU       98.38
 TTTTTTTTTTTTTTTTTTTTTTTTTTTTTT SHELLXN     TELAPSE      109.30 TCPU      109.04
 TTTTTTTTTTTTTTTTTTTTTTTTTTTTTT MONMO3      TELAPSE      109.34 TCPU      109.07
 NUMERICALLY INTEGRATED DENSITY     57.9998177964
 TTTTTTTTTTTTTTTTTTTTTTTTTTTTTT NUMDFT      TELAPSE      111.00 TCPU      110.73
 CYC   8 ETOT(AU) -3.217856419243E+03 DETOT  1.42E+01 tst  9.68E-01 PX  2.05E+00
 TTTTTTTTTTTTTTTTTTTTTTTTTTTTTT DIIS        TELAPSE      111.00 TCPU      110.73
 DIIS TEST: 0.32179E+02 AT SCF   CYCLE   8 - DIIS ACTIVE - HISTORY:     8 CYCLES
 TTTTTTTTTTTTTTTTTTTTTTTTTTTTTT FDIK        TELAPSE      111.00 TCPU      110.74
 POSSIBLY CONDUCTING STATE - EFERMI(AU)  3.2110618E-01 (RES. CHARGE  1.60E-13;IT. 12)
 TTTTTTTTTTTTTTTTTTTTTTTTTTTTTT PDIG        TELAPSE      111.00 TCPU      110.74
 CHARGE NORMALIZATION FACTOR   1.00000000
 TOTAL ATOMIC CHARGES:
  24.8386957  33.0693809   0.0404082   0.0515152
 TTTTTTTTTTTTTTTTTTTTTTTTTTTTTT MOQGAD      TELAPSE      111.01 TCPU      110.75
 TTTTTTTTTTTTTTTTTTTTTTTTTTTTTT SHELLXN     TELAPSE      121.68 TCPU      121.41
 TTTTTTTTTTTTTTTTTTTTTTTTTTTTTT MONMO3      TELAPSE      121.72 TCPU      121.45
 NUMERICALLY INTEGRATED DENSITY     57.9997674718
 TTTTTTTTTTTTTTTTTTTTTTTTTTTTTT NUMDFT      TELAPSE      123.38 TCPU      123.11
 CYC   9 ETOT(AU) -3.218093770754E+03 DETOT -2.37E-01 tst  2.21E-02 PX  1.52E+00
 TTTTTTTTTTTTTTTTTTTTTTTTTTTTTT DIIS        TELAPSE      123.38 TCPU      123.11
 DIIS TEST: 0.33122E+02 AT SCF   CYCLE   9 - DIIS ACTIVE - HISTORY:     9 CYCLES
 TTTTTTTTTTTTTTTTTTTTTTTTTTTTTT FDIK        TELAPSE      123.38 TCPU      123.11
 POSSIBLY CONDUCTING STATE - EFERMI(AU)  3.8675003E-01 (RES. CHARGE  3.29E-12;IT. 12)
 TTTTTTTTTTTTTTTTTTTTTTTTTTTTTT PDIG        TELAPSE      123.38 TCPU      123.12
 CHARGE NORMALIZATION FACTOR   1.00000000
 TOTAL ATOMIC CHARGES:
  23.9694643  33.8976798   0.0570059   0.0758500
 TTTTTTTTTTTTTTTTTTTTTTTTTTTTTT MOQGAD      TELAPSE      123.39 TCPU      123.12
 TTTTTTTTTTTTTTTTTTTTTTTTTTTTTT SHELLXN     TELAPSE      134.05 TCPU      133.78
 TTTTTTTTTTTTTTTTTTTTTTTTTTTTTT MONMO3      TELAPSE      134.08 TCPU      133.81
 NUMERICALLY INTEGRATED DENSITY     57.9997806081
 TTTTTTTTTTTTTTTTTTTTTTTTTTTTTT NUMDFT      TELAPSE      135.74 TCPU      135.47
 CYC  10 ETOT(AU) -3.209769492404E+03 DETOT  8.32E+00 tst  2.34E-02 PX  5.87E-01
 TTTTTTTTTTTTTTTTTTTTTTTTTTTTTT DIIS        TELAPSE      135.74 TCPU      135.47
 DIIS TEST: 0.24267E+02 AT SCF   CYCLE  10 - DIIS ACTIVE - HISTORY:    10 CYCLES
 TTTTTTTTTTTTTTTTTTTTTTTTTTTTTT FDIK        TELAPSE      135.74 TCPU      135.47
 POSSIBLY CONDUCTING STATE - EFERMI(AU)  3.5966456E-01 (RES. CHARGE  4.45E-11;IT. 10)
 TTTTTTTTTTTTTTTTTTTTTTTTTTTTTT PDIG        TELAPSE      135.75 TCPU      135.48
 CHARGE NORMALIZATION FACTOR   1.00000000
 TOTAL ATOMIC CHARGES:
  30.1950143  27.7002757   0.0787863   0.0259237
 TTTTTTTTTTTTTTTTTTTTTTTTTTTTTT MOQGAD      TELAPSE      135.75 TCPU      135.48
 TTTTTTTTTTTTTTTTTTTTTTTTTTTTTT SHELLXN     TELAPSE      146.40 TCPU      146.13
 TTTTTTTTTTTTTTTTTTTTTTTTTTTTTT MONMO3      TELAPSE      146.43 TCPU      146.16
 NUMERICALLY INTEGRATED DENSITY     57.9997663131
 TTTTTTTTTTTTTTTTTTTTTTTTTTTTTT NUMDFT      TELAPSE      148.09 TCPU      147.82
 CYC  11 ETOT(AU) -3.236820713965E+03 DETOT -2.71E+01 tst  8.54E-01 PX  1.52E+00
 TTTTTTTTTTTTTTTTTTTTTTTTTTTTTT DIIS        TELAPSE      148.09 TCPU      147.82
 DIIS TEST: 0.61372E+01 AT SCF   CYCLE  11 - DIIS ACTIVE - HISTORY:    11 CYCLES
 TTTTTTTTTTTTTTTTTTTTTTTTTTTTTT FDIK        TELAPSE      148.10 TCPU      147.83
 POSSIBLY CONDUCTING STATE - EFERMI(AU)  3.7336212E-01 (RES. CHARGE  3.55E-15;IT. 12)
 TTTTTTTTTTTTTTTTTTTTTTTTTTTTTT PDIG        TELAPSE      148.10 TCPU      147.83
 CHARGE NORMALIZATION FACTOR   1.00000000
 TOTAL ATOMIC CHARGES:
  32.7943130  25.0848561   0.0894847   0.0313463
 TTTTTTTTTTTTTTTTTTTTTTTTTTTTTT MOQGAD      TELAPSE      148.11 TCPU      147.84
 TTTTTTTTTTTTTTTTTTTTTTTTTTTTTT SHELLXN     TELAPSE      158.77 TCPU      158.49
 TTTTTTTTTTTTTTTTTTTTTTTTTTTTTT MONMO3      TELAPSE      158.81 TCPU      158.53
 NUMERICALLY INTEGRATED DENSITY     57.9997657386
 TTTTTTTTTTTTTTTTTTTTTTTTTTTTTT NUMDFT      TELAPSE      160.46 TCPU      160.18
 CYC  12 ETOT(AU) -3.221226745032E+03 DETOT  1.56E+01 tst  2.60E-01 PX  1.18E+00
 TTTTTTTTTTTTTTTTTTTTTTTTTTTTTT DIIS        TELAPSE      160.46 TCPU      160.19
 DIIS TEST: 0.34269E+02 AT SCF   CYCLE  12 - DIIS ACTIVE - HISTORY:    12 CYCLES
 TTTTTTTTTTTTTTTTTTTTTTTTTTTTTT FDIK        TELAPSE      160.47 TCPU      160.19
 POSSIBLY CONDUCTING STATE - EFERMI(AU)  1.8968402E-01 (RES. CHARGE  4.96E-11;IT. 10)
 TTTTTTTTTTTTTTTTTTTTTTTTTTTTTT PDIG        TELAPSE      160.47 TCPU      160.19
 CHARGE NORMALIZATION FACTOR   1.00000000
 TOTAL ATOMIC CHARGES:
  25.0278997  32.9266219   0.0259166   0.0195617
 TTTTTTTTTTTTTTTTTTTTTTTTTTTTTT MOQGAD      TELAPSE      160.48 TCPU      160.20
 TTTTTTTTTTTTTTTTTTTTTTTTTTTTTT SHELLXN     TELAPSE      171.13 TCPU      170.85
 TTTTTTTTTTTTTTTTTTTTTTTTTTTTTT MONMO3      TELAPSE      171.17 TCPU      170.89
 NUMERICALLY INTEGRATED DENSITY     57.9998191223
 TTTTTTTTTTTTTTTTTTTTTTTTTTTTTT NUMDFT      TELAPSE      172.83 TCPU      172.55
 CYC  13 ETOT(AU) -3.224052501656E+03 DETOT -2.83E+00 tst  1.94E+00 PX  4.06E+00
 TTTTTTTTTTTTTTTTTTTTTTTTTTTTTT DIIS        TELAPSE      172.83 TCPU      172.55
 DIIS TEST: 0.14271E+02 AT SCF   CYCLE  13 - DIIS ACTIVE - HISTORY:    13 CYCLES
 TTTTTTTTTTTTTTTTTTTTTTTTTTTTTT FDIK        TELAPSE      172.83 TCPU      172.55
 POSSIBLY CONDUCTING STATE - EFERMI(AU)  6.6491874E-02 (RES. CHARGE  8.00E-12;IT. 12)
 TTTTTTTTTTTTTTTTTTTTTTTTTTTTTT PDIG        TELAPSE      172.84 TCPU      172.56
 CHARGE NORMALIZATION FACTOR   1.00000000
 TOTAL ATOMIC CHARGES:
  26.5128751  31.4640897   0.0215063   0.0015289
 TTTTTTTTTTTTTTTTTTTTTTTTTTTTTT MOQGAD      TELAPSE      172.85 TCPU      172.57
 TTTTTTTTTTTTTTTTTTTTTTTTTTTTTT SHELLXN     TELAPSE      183.49 TCPU      183.21
 TTTTTTTTTTTTTTTTTTTTTTTTTTTTTT MONMO3      TELAPSE      183.53 TCPU      183.25
 NUMERICALLY INTEGRATED DENSITY     57.9998387023
 TTTTTTTTTTTTTTTTTTTTTTTTTTTTTT NUMDFT      TELAPSE      185.18 TCPU      184.90
 CYC  14 ETOT(AU) -3.234636096464E+03 DETOT -1.06E+01 tst  2.39E-01 PX  1.60E+00
 TTTTTTTTTTTTTTTTTTTTTTTTTTTTTT DIIS        TELAPSE      185.19 TCPU      184.91
 DIIS TEST: 0.48560E+01 AT SCF   CYCLE  14 - DIIS ACTIVE - HISTORY:    14 CYCLES
 TTTTTTTTTTTTTTTTTTTTTTTTTTTTTT FDIK        TELAPSE      185.19 TCPU      184.91
 POSSIBLY CONDUCTING STATE - EFERMI(AU)  2.8716143E-05 (RES. CHARGE  1.36E-06;IT. 29)
 TTTTTTTTTTTTTTTTTTTTTTTTTTTTTT PDIG        TELAPSE      185.19 TCPU      184.91
 CHARGE NORMALIZATION FACTOR   1.00000005
 TOTAL ATOMIC CHARGES:
  33.3329614  24.6702781   0.0041537  -0.0073932
 TTTTTTTTTTTTTTTTTTTTTTTTTTTTTT MOQGAD      TELAPSE      185.20 TCPU      184.92
 TTTTTTTTTTTTTTTTTTTTTTTTTTTTTT SHELLXN     TELAPSE      195.85 TCPU      195.56
 TTTTTTTTTTTTTTTTTTTTTTTTTTTTTT MONMO3      TELAPSE      195.88 TCPU      195.60
 NUMERICALLY INTEGRATED DENSITY     57.9998631145
 TTTTTTTTTTTTTTTTTTTTTTTTTTTTTT NUMDFT      TELAPSE      197.54 TCPU      197.26
 CYC  15 ETOT(AU) -3.223356482092E+03 DETOT  1.13E+01 tst  1.21E+01 PX  1.53E+00
 TTTTTTTTTTTTTTTTTTTTTTTTTTTTTT DIIS        TELAPSE      197.54 TCPU      197.26
 DIIS TEST: 0.16511E+02 AT SCF   CYCLE  15 - DIIS ACTIVE - HISTORY:    15 CYCLES
 TTTTTTTTTTTTTTTTTTTTTTTTTTTTTT FDIK        TELAPSE      197.55 TCPU      197.27
 POSSIBLY CONDUCTING STATE - EFERMI(AU)  1.5555852E-02 (RES. CHARGE  3.52E-11;IT. 12)
 TTTTTTTTTTTTTTTTTTTTTTTTTTTTTT PDIG        TELAPSE      197.55 TCPU      197.27
 CHARGE NORMALIZATION FACTOR   1.00000000
 TOTAL ATOMIC CHARGES:
  33.0481011  24.9529529   0.0008749  -0.0019288
 TTTTTTTTTTTTTTTTTTTTTTTTTTTTTT MOQGAD      TELAPSE      197.56 TCPU      197.28
 TTTTTTTTTTTTTTTTTTTTTTTTTTTTTT SHELLXN     TELAPSE      208.21 TCPU      207.93
 TTTTTTTTTTTTTTTTTTTTTTTTTTTTTT MONMO3      TELAPSE      208.25 TCPU      207.97
 NUMERICALLY INTEGRATED DENSITY     57.9998567881
 TTTTTTTTTTTTTTTTTTTTTTTTTTTTTT NUMDFT      TELAPSE      209.91 TCPU      209.62
 CYC  16 ETOT(AU) -3.225492284472E+03 DETOT -2.14E+00 tst  1.82E-03 PX  6.08E-01
 TTTTTTTTTTTTTTTTTTTTTTTTTTTTTT DIIS        TELAPSE      209.91 TCPU      209.63
 DIIS TEST: 0.13352E+02 AT SCF   CYCLE  16 - DIIS ACTIVE - HISTORY:    16 CYCLES
 TTTTTTTTTTTTTTTTTTTTTTTTTTTTTT FDIK        TELAPSE      209.91 TCPU      209.63
 POSSIBLY CONDUCTING STATE - EFERMI(AU)  4.3344161E-02 (RES. CHARGE  2.95E-13;IT. 10)
 TTTTTTTTTTTTTTTTTTTTTTTTTTTTTT PDIG        TELAPSE      209.92 TCPU      209.63
 CHARGE NORMALIZATION FACTOR   1.00000000
 TOTAL ATOMIC CHARGES:
  33.6926112  24.3083185   0.0030220  -0.0039517
 TTTTTTTTTTTTTTTTTTTTTTTTTTTTTT MOQGAD      TELAPSE      209.93 TCPU      209.64
 TTTTTTTTTTTTTTTTTTTTTTTTTTTTTT SHELLXN     TELAPSE      220.58 TCPU      220.29
 TTTTTTTTTTTTTTTTTTTTTTTTTTTTTT MONMO3      TELAPSE      220.61 TCPU      220.33
 NUMERICALLY INTEGRATED DENSITY     57.9998562628
 TTTTTTTTTTTTTTTTTTTTTTTTTTTTTT NUMDFT      TELAPSE      222.27 TCPU      221.99
 CYC  17 ETOT(AU) -3.219670485903E+03 DETOT  5.82E+00 tst  9.53E-03 PX  1.68E+00
 TTTTTTTTTTTTTTTTTTTTTTTTTTTTTT DIIS        TELAPSE      222.28 TCPU      221.99
 DIIS TEST: 0.21381E+02 AT SCF   CYCLE  17 - DIIS ACTIVE - HISTORY:    17 CYCLES
 TTTTTTTTTTTTTTTTTTTTTTTTTTTTTT FDIK        TELAPSE      222.28 TCPU      222.00
 POSSIBLY CONDUCTING STATE - EFERMI(AU) -1.8837083E-01 (RES. CHARGE  6.46E-11;IT. 10)
 TTTTTTTTTTTTTTTTTTTTTTTTTTTTTT PDIG        TELAPSE      222.29 TCPU      222.00
 CHARGE NORMALIZATION FACTOR   1.00000000
 TOTAL ATOMIC CHARGES:
  30.7811670  27.2341482  -0.0107812  -0.0045340
 TTTTTTTTTTTTTTTTTTTTTTTTTTTTTT MOQGAD      TELAPSE      222.29 TCPU      222.01
 TTTTTTTTTTTTTTTTTTTTTTTTTTTTTT SHELLXN     TELAPSE      232.94 TCPU      232.66
 TTTTTTTTTTTTTTTTTTTTTTTTTTTTTT MONMO3      TELAPSE      232.98 TCPU      232.69
 NUMERICALLY INTEGRATED DENSITY     57.9999158609
 TTTTTTTTTTTTTTTTTTTTTTTTTTTTTT NUMDFT      TELAPSE      234.64 TCPU      234.35
 CYC  18 ETOT(AU) -3.239409380030E+03 DETOT -1.97E+01 tst  4.98E-01 PX  3.88E+00
 TTTTTTTTTTTTTTTTTTTTTTTTTTTTTT DIIS        TELAPSE      234.64 TCPU      234.35
 DIIS TEST: 0.16750E+01 AT SCF   CYCLE  18 - DIIS ACTIVE - HISTORY:    18 CYCLES
 TTTTTTTTTTTTTTTTTTTTTTTTTTTTTT FDIK        TELAPSE      234.64 TCPU      234.36
 INSULATING STATE
 TOP OF VALENCE BANDS -    BAND     29; K    1; EIG -1.1944415E-01 AU
 BOTTOM OF VIRTUAL BANDS - BAND     30; K    6; EIG -1.1938619E-01 AU
 INDIRECT ENERGY BAND GAP:   0.0016 eV
 BOTTOM OF VIRTUAL BANDS - BAND     30; K    1; EIG -1.1546649E-01 AU
 TTTTTTTTTTTTTTTTTTTTTTTTTTTTTT PDIG        TELAPSE      234.65 TCPU      234.36
 CHARGE NORMALIZATION FACTOR   1.00000000
 TOTAL ATOMIC CHARGES:
  27.3494599  30.6583761   0.0008286  -0.0086646
 TTTTTTTTTTTTTTTTTTTTTTTTTTTTTT MOQGAD      TELAPSE      234.66 TCPU      234.37
 TTTTTTTTTTTTTTTTTTTTTTTTTTTTTT SHELLXN     TELAPSE      245.33 TCPU      245.03
 TTTTTTTTTTTTTTTTTTTTTTTTTTTTTT MONMO3      TELAPSE      245.36 TCPU      245.07
 NUMERICALLY INTEGRATED DENSITY     57.9998999657
 TTTTTTTTTTTTTTTTTTTTTTTTTTTTTT NUMDFT      TELAPSE      247.02 TCPU      246.73
 CYC  19 ETOT(AU) -3.239631854987E+03 DETOT -2.22E-01 tst  1.84E-01 PX  1.26E+00
 TTTTTTTTTTTTTTTTTTTTTTTTTTTTTT DIIS        TELAPSE      247.03 TCPU      246.73
 DIIS TEST: 0.14737E+01 AT SCF   CYCLE  19 - DIIS ACTIVE - HISTORY:    19 CYCLES
 TTTTTTTTTTTTTTTTTTTTTTTTTTTTTT FDIK        TELAPSE      247.03 TCPU      246.74
 POSSIBLY CONDUCTING STATE - EFERMI(AU) -1.1309984E-01 (RES. CHARGE  4.76E-11;IT. 16)
 TTTTTTTTTTTTTTTTTTTTTTTTTTTTTT PDIG        TELAPSE      247.03 TCPU      246.74
 CHARGE NORMALIZATION FACTOR   1.00000000
 TOTAL ATOMIC CHARGES:
  28.7786948  29.2278870  -0.0059238  -0.0006581
 TTTTTTTTTTTTTTTTTTTTTTTTTTTTTT MOQGAD      TELAPSE      247.04 TCPU      246.75
 TTTTTTTTTTTTTTTTTTTTTTTTTTTTTT SHELLXN     TELAPSE      257.70 TCPU      257.40

 ::: DIPOLE MOMENT ALONG NON PERIODIC DIRECTIONS:
 ::: A.U.     (Z)  1.06680E+00
 ::: DEBYE        -2.71154E+00

 +++ ENERGIES IN A.U. +++
 ::: EXT EL-POLE                                  -2.1601701152179E+03
 ::: EXT EL-SPHEROPOLE                             0.0000000000000E+00
 ::: BIELET ZONE E-E                               2.0563087106236E+03
 ::: TOTAL E-E                                    -1.0386140459435E+02
 ::: TOTAL E-N + N-E                              -4.7997162000409E+03
 ::: TOTAL N-N                                    -1.4572869512949E+03
 ::: KINETIC ENERGY                                3.2245982296438E+03
 ::: PSEUDO TOTAL   ENERGY                        -3.1362663262864E+03
 ::: VIRIAL COEFFICIENT                            1.0138867763306E+00
 TTTTTTTTTTTTTTTTTTTTTTTTTTTTTT MONMO3      TELAPSE      257.74 TCPU      257.44
 NUMERICALLY INTEGRATED DENSITY     57.9998956289
 TTTTTTTTTTTTTTTTTTTTTTTTTTTTTT NUMDFT      TELAPSE      259.39 TCPU      259.10
 CYC  20 ETOT(AU) -3.243197183307E+03 DETOT -3.57E+00 tst  1.83E-02 PX  1.26E+00

 == SCF ENDED - TOO MANY CYCLES            E(AU) -3.2431971833069E+03 CYCLES  20


 ENERGY EXPRESSION=HARTREE+FOCK EXCH*0.20000+(BECKE      EXCH)*0.80000+LYP        CORR


 TOTAL ENERGY(DFT)(AU)( 20) -3.2431971833069E+03 DE-3.6E+00 tester 1.8E-02
 TTTTTTTTTTTTTTTTTTTTTTTTTTTTTT EDFT        TELAPSE      259.39 TCPU      259.10
 EIGENVECTORS IN FORTRAN UNIT  8
 TTTTTTTTTTTTTTTTTTTTTTTTTTTTTT END         TELAPSE      259.41 TCPU      259.11
 EEEEEEEEEE TERMINATION  DATE 15 02 2022 TIME 18:52:33.3
Tue 15 Feb 2022 18:52:33 GMT
Contents of temporary directory:
total 4128
-rw-r--r--  1 brunocamino  admin  346080 15 Feb 18:52 diis_Fg
-rw-r--r--  1 brunocamino  admin  112896 15 Feb 18:52 diis_Fia1
-rw-r--r--  1 brunocamino  admin  119168 15 Feb 18:52 diis_Fia2
-rw-r--r--  1 brunocamino  admin       0 15 Feb 18:48 diis_Sk
-rw-r--r--  1 brunocamino  admin  307504 15 Feb 18:52 fort.10
-rw-r--r--  1 brunocamino  admin   17304 15 Feb 18:52 fort.11
-rw-r--r--  1 brunocamino  admin    1459 15 Feb 18:48 fort.34
-rw-r--r--  1 brunocamino  admin   33024 15 Feb 18:48 fort.61
-rw-r--r--  1 brunocamino  admin   16512 15 Feb 18:48 fort.62
-rw-r--r--  1 brunocamino  admin  307504 15 Feb 18:52 fort.8
-rw-r--r--  1 brunocamino  admin  165668 15 Feb 18:52 fort.9
-rw-r--r--  1 brunocamino  admin   43424 15 Feb 18:52 fort.95
-rw-r--r--  1 brunocamino  admin  425307 15 Feb 18:52 fort.98
wave function binary file /Users/brunocamino/Desktop/Imperial/cmsg_icl/ml-surface-adsorption/data/Cu_O_100_9_BSSE_sub.f9
file fort.98 saved as /Users/brunocamino/Desktop/Imperial/cmsg_icl/ml-surface-adsorption/data/Cu_O_100_9_BSSE_sub.f98
geometry input file fort.34 saved as /Users/brunocamino/Desktop/Imperial/cmsg_icl/ml-surface-adsorption/data/Cu_O_100_9_BSSE_sub.gui
temporary directory /Users/brunocamino/crystal/tmp removed
