date Tue 15 Feb 2022 08:11:40 GMT
hostname MacBook-Pro-3.local
system Darwin MacBook-Pro-3.local 21.3.0 Darwin Kernel Version 21.3.0: Wed Jan 5 21:37:58 PST 2022; root:xnu-8019.80.24~20/RELEASE_ARM64_T8101 arm64
user brunocamino
output data in /Users/brunocamino/Desktop/Imperial/cmsg_icl/ml-surface-adsorption/data/Cu_O_100_1.out
crystal executable in /Users/brunocamino/crystal
input data in /Users/brunocamino/Desktop/Imperial/cmsg_icl/ml-surface-adsorption/data/Cu_O_100_1.d12
temporary directory /Users/brunocamino/crystal/tmp
external geometry input from /Users/brunocamino/Desktop/Imperial/cmsg_icl/ml-surface-adsorption/data/Cu_O_100_1.gui
external geometry input saved in /Users/brunocamino/Desktop/Imperial/cmsg_icl/ml-surface-adsorption/data/Cu_O_100_1_inp.gui
Adsorption tests
EXTERNAL
EXTPRT
BASISSET
STO-3G
DFT
B3LYP
XXLGRID
ENDDFT
TOLINTEG
5 5 5 5 10
SHRINK
6 12
MAXCYCLE
20
FMIXING
70
DIIS
ENDSCF

         
 *******************************************************************************
 *                                                                             *
 *                               CRYSTAL17                                     *
 *                      public : 1.0.2 - March 1st, 2018                       *
 *                       HTTP://WWW.CRYSTAL.UNITO.IT                           *
 *                                                                             *
 *                              MAIN AUTHORS                                   *
 *                                                                             *
 *  R. DOVESI(1,11), V.R. SAUNDERS(2), C. ROETTI(1,11), R. ORLANDO(1,11),      *
 *  C.M. ZICOVICH-WILSON(1,3), F. PASCALE(4), B. CIVALLERI(1,11),              *
 *  K. DOLL(5), N.M. HARRISON(2,6), I.J. BUSH(7), Ph. D'ARCO(8),               *
 *  M. LLUNELL(9), M. CAUSA'(10), Y. NOEL(8), L. MASCHIO(1,11), A. ERBA(1,11)  *
 *  M. RE'RAT(14), S. CASASSA(1,11)                                            *
 *                                                                             *
 *        CONTRIBUTIONS TO THE CODE HAVE ALSO BEEN GIVEN BY                    *
 *                                                                             *
 *  M. FERRABONE(1,11), M. DE LA PIERRE(1,11), M. FERRERO(1,11),               *
 *  J. BAIMA(1,11), E. ALBANESE(1,11), M.F. PEINTINGER(12), R. BAST(13),       *
 *  B. KIRTMAN(15), V. LACIVITA(1,11), R. DEMICHELIS(1,16)                     *
 *  G. BRANDEBURG(17), S. SALUSTRO(1,11), G. SANSONE(1,11)                     *
 *  M.T. RUGGIERO(18)                                                          *
 *                                                                             *
 * (1) THEORETICAL CHEMISTRY GROUP - UNIVERSITA' DI TORINO - TORINO (ITALY)    *
 * (2) COMPUTATIONAL SCIENCE & ENGINEERING DEPARTMENT - STFC DARESBURY (UK)    *
 * (3) UNIVERSIDAD AUTONOMA DEL ESTADO DE MORELOS - CUERNAVACA (MEXICO)        *
 * (4) UNIVERSITE' DE LORRAINE - NANCY (FRANCE)                                *
 * (5) UNIVERSITAET STUTTGART- STUTTGART (GERMANY)                             *
 * (6) IMPERIAL COLLEGE - LONDON (UK)                                          *
 * (7) OXFORD E-RESEARCH CENTRE - OXFORD (UK)                                  *
 * (8) UPMC - SORBONNE UNIVERSITES - PARIS (FRANCE)                            *
 * (9) UNIVERSIDAD DE BARCELONA - BARCELONA (SPAIN)                            *
 *(10) UNIVERSITA' DI NAPOLI "FEDERICO II" - NAPOLI (ITALY)                    *
 *(11) NIS - NANOSTRUCTURED INTERFACES AND SURFACES - TORINO (ITALY)           *
 *(12) MPI FUER CHEMISCHE ENERGIEKONVERSION - MUELHEIM AN DER RUHR (GERMANY)   *
 *(13) UNIVERSITY OF TROMSO - TROMSO (NORWAY)                                  *
 *(14) UNIVERSITE' DE PAU ET DES PAYS DE L'ADOUR - PAU (FRANCE)                *
 *(15) UNIVERSITY OF CALIFORNIA SANTA BARBARA - SANTA BARBARA (USA)            *
 *(16) CURTIN UNIVERSITY - PERTH (AUSTRALIA)                                   *
 *(17) UNIVERSITY COLLEGE LONDON - LONDON (UK)                                 *
 *(18) CAMBRIDGE UNIVERSITY - CAMBRIDGE (UK)                                   *
 *                                                                             *
 *******************************************************************************
 EEEEEEEEEE STARTING  DATE 15 02 2022 TIME 08:11:40.5
 Adsorption tests                                                                

 GEOMETRY INPUT FROM EXTERNAL FILE (FORTRAN UNIT 34)
 2D - SLAB    

 *******************************************************************************
 LATTICE PARAMETERS  (ANGSTROMS AND DEGREES) - PRIMITIVE CELL
       A          B          C        ALPHA      BETA     GAMMA        VOLUME
    2.56062    2.56062  500.00000    90.00000  90.00000 120.00000      5.678329
 INFORMATION **** CHKGRP **** SPGR WITH NO INVERSION

 NUMBER OF IRREDUCIBLE ATOMS IN THE CELL:    3

 CARTESIAN COORDINATES (ANGSTROM) - IRREDUCIBLE ATOMS AND SYMMETRY RELATED

 AT.IRR.  AT  AT.N.          X                   Y                   Z
     1     1    29    1.280310000000E+00  7.391900000000E-01  1.045370000000E+00
     1     2    29    1.280307142901E+00 -7.391850513586E-01  1.045370000000E+00
     3     3     8    1.280310000000E+00  7.391900000000E-01 -9.546300000000E-01
     3     4     8    1.280307142901E+00 -7.391850513586E-01 -9.546300000000E-01
     5     5     8    1.280310000000E+00  7.391900000000E-01  3.045370000000E+00
     5     6     8    1.280307142901E+00 -7.391850513586E-01  3.045370000000E+00

 SYMMETRY CHANGED DURING OLD RUN :  INFORMATION ON SPACE GROUP LOST 
 NUMBER OF SYMMETRY OPERATORS         :   12
 *******************************************************************************
 LATTICE PARAMETERS (ANGSTROMS AND DEGREES) - BOHR = 0.5291772083 ANGSTROM
 PRIMITIVE CELL
         A              B              C           ALPHA      BETA       GAMMA 
     2.56061892     2.56061892   500.00000000    90.000000  90.000000 120.000000
 *******************************************************************************
 ATOMS IN THE ASYMMETRIC UNIT    3 - ATOMS IN THE UNIT CELL:    6
     ATOM                 X/A                 Y/B             Z(ANGSTROM)
 *******************************************************************************
      1 T  29 CU    3.333328708019E-01 -3.333324477219E-01  1.045370000000E+00
      2 F  29 CU   -3.333346792913E-01  3.333328708019E-01  1.045370000000E+00
      3 T   8 O     3.333328708019E-01 -3.333324477219E-01 -9.546300000000E-01
      4 F   8 O    -3.333346792913E-01  3.333328708019E-01 -9.546300000000E-01
      5 T   8 O     3.333328708019E-01 -3.333324477219E-01  3.045370000000E+00
      6 F   8 O    -3.333346792913E-01  3.333328708019E-01  3.045370000000E+00

 T = ATOM BELONGING TO THE ASYMMETRIC UNIT
 *******************************************************************************
 * GEOMETRY EDITING - INPUT COORDINATES ARE GIVEN IN ANGSTROM         
 *******************************************************************************

 GEOMETRY NOW FULLY CONSISTENT WITH THE GROUP

 GCALCO - MAX INDICES DIRECT LATTICE VECTOR    83    83     0
 NO.OF VECTORS CREATED 6999 STARS  503 RMAX   212.74519 BOHR

 GEOMETRY FOR WAVE FUNCTION - DIMENSIONALITY OF THE SYSTEM    2
 (NON PERIODIC DIRECTION: LATTICE PARAMETER FORMALLY SET TO 500)
 *******************************************************************************
 LATTICE PARAMETERS (ANGSTROMS AND DEGREES) - BOHR = 0.5291772083 ANGSTROM
 PRIMITIVE CELL
         A              B              C           ALPHA      BETA       GAMMA 
     2.56061892     2.56061892   500.00000000    90.000000  90.000000 120.000000
 *******************************************************************************
 ATOMS IN THE ASYMMETRIC UNIT    3 - ATOMS IN THE UNIT CELL:    6
     ATOM                 X/A                 Y/B             Z(ANGSTROM)
 *******************************************************************************
      1 T  29 CU    3.333333333333E-01 -3.333333333333E-01  1.045370000000E+00
      2 F  29 CU   -3.333333311484E-01  3.333333333333E-01  1.045370000000E+00
      3 T   8 O     3.333333333333E-01 -3.333333333333E-01 -9.546300000000E-01
      4 F   8 O    -3.333333311484E-01  3.333333333333E-01 -9.546300000000E-01
      5 T   8 O     3.333333333333E-01 -3.333333333333E-01  3.045370000000E+00
      6 F   8 O    -3.333333311484E-01  3.333333333333E-01  3.045370000000E+00

 T = ATOM BELONGING TO THE ASYMMETRIC UNIT

 ****   12 SYMMOPS - TRANSLATORS IN FRACTIONAL UNITS
 **** MATRICES AND TRANSLATORS IN THE CRYSTALLOGRAPHIC REFERENCE FRAME
   V INV                    ROTATION MATRICES                   TRANSLATORS
   1   1  1.00  0.00  0.00  0.00  1.00  0.00  0.00  0.00  1.00  0.00  0.00  0.00
   2   3  1.00 -1.00  0.00  1.00  0.00  0.00  0.00  0.00  1.00  0.00  0.00  0.00
   3   2  0.00  1.00  0.00 -1.00  1.00  0.00  0.00  0.00  1.00  0.00  0.00  0.00
   4   4 -1.00  0.00  0.00  0.00 -1.00  0.00  0.00  0.00  1.00  0.00  0.00  0.00
   5   6 -1.00  1.00  0.00 -1.00 -0.00  0.00  0.00  0.00  1.00  0.00  0.00  0.00
   6   5 -0.00 -1.00  0.00  1.00 -1.00  0.00  0.00  0.00  1.00  0.00  0.00  0.00
   7   7 -1.00 -0.00  0.00 -1.00  1.00  0.00  0.00  0.00  1.00  0.00  0.00  0.00
   8   8 -1.00  1.00  0.00  0.00  1.00  0.00  0.00  0.00  1.00  0.00  0.00  0.00
   9   9  0.00  1.00  0.00  1.00  0.00  0.00  0.00  0.00  1.00  0.00  0.00  0.00
  10  10  1.00  0.00  0.00  1.00 -1.00  0.00  0.00  0.00  1.00  0.00  0.00  0.00
  11  11  1.00 -1.00  0.00 -0.00 -1.00  0.00  0.00  0.00  1.00  0.00  0.00  0.00
  12  12  0.00 -1.00  0.00 -1.00  0.00  0.00  0.00  0.00  1.00  0.00  0.00  0.00

 DIRECT LATTICE VECTORS CARTESIAN COMPONENTS (ANGSTROM)
          X                    Y                    Z
   0.128030945833E+01  -0.221756103123E+01   0.000000000000E+00
   0.128030945833E+01   0.221756103123E+01   0.000000000000E+00
   0.000000000000E+00   0.000000000000E+00   0.500000000000E+03


 CARTESIAN COORDINATES - PRIMITIVE CELL
 *******************************************************************************
 *      ATOM          X(ANGSTROM)         Y(ANGSTROM)         Z(ANGSTROM)
 *******************************************************************************
    1    29 CU    1.280309458327E+00  7.391870104109E-01  1.045370000000E+00
    2    29 CU    1.280309461124E+00 -7.391870152561E-01  1.045370000000E+00
    3     8 O     1.280309458327E+00  7.391870104109E-01 -9.546300000000E-01
    4     8 O     1.280309461124E+00 -7.391870152561E-01 -9.546300000000E-01
    5     8 O     1.280309458327E+00  7.391870104109E-01  3.045370000000E+00
    6     8 O     1.280309461124E+00 -7.391870152561E-01  3.045370000000E+00

 *******************************************************************************
 STARTING BASIS SET HANDLING 
 *******************************************************************************

 Loading internal basis set: STO-3G              

 Please cite in your publication:
 H - Ne: W.J. Hehre, R.F. Stewart and J.A. Pople, J. Chem. Phys. 2657 (1969).   
                                                                                
                                                                                
                    
 Na - Ar: W.J. Hehre, R. Ditchfield, R.F. Stewart, J.A. Pople, J. Chem. Phys.  2
 769 (1970).                                                                    
                                                                                
                    
 K,Ca: W.J. Pietro, B.A. Levy, W.J. Hehre and R.F. Stewart, Inorg. Chem., 1980, 
 19 (8), pp 2225-2229                                                           
                                                                                
                    
 Ga-Kr: J. Am. Chem. Soc. 19, 2225 (1980).                                      
                                                                                
                                                                                
                    
 Sc-Zn, Y-Cd: W.J. Pietro and W.J. Hehre, J. Comp. Chem. 4, 241 (1983).         
                                                                                
                                                                                
                    

 *******************************************************************************
 LOCAL ATOMIC FUNCTIONS BASIS SET
 *******************************************************************************
   ATOM   X(AU)   Y(AU)   Z(AU)  N. TYPE  EXPONENT  S COEF   P COEF   D/F/G COEF
 *******************************************************************************
   1 CU   2.419   1.397   1.975
                                  1 S  
                                         1.802E+03 1.543E-01 0.000E+00 0.000E+00
                                         3.282E+02 5.353E-01 0.000E+00 0.000E+00
                                         8.882E+01 4.446E-01 0.000E+00 0.000E+00
                                  2 S  
                                         1.441E+02-9.997E-02 0.000E+00 0.000E+00
                                         3.349E+01 3.995E-01 0.000E+00 0.000E+00
                                         1.089E+01 7.001E-01 0.000E+00 0.000E+00
                                  3 S  
                                         1.131E+01-2.278E-01 0.000E+00 0.000E+00
                                         3.449E+00 2.175E-01 0.000E+00 0.000E+00
                                         1.331E+00 9.167E-01 0.000E+00 0.000E+00
                                  4 S  
                                         6.309E-01-3.088E-01 0.000E+00 0.000E+00
                                         2.329E-01 1.961E-02 0.000E+00 0.000E+00
                                         1.028E-01 1.131E+00 0.000E+00 0.000E+00
                           5-     7 P  
                                         1.441E+02 0.000E+00 1.559E-01 0.000E+00
                                         3.349E+01 0.000E+00 6.077E-01 0.000E+00
                                         1.089E+01 0.000E+00 3.920E-01 0.000E+00
                           8-    10 P  
                                         1.131E+01 0.000E+00 4.952E-03 0.000E+00
                                         3.449E+00 0.000E+00 5.778E-01 0.000E+00
                                         1.331E+00 0.000E+00 4.846E-01 0.000E+00
                          11-    13 P  
                                         6.309E-01 0.000E+00-1.215E-01 0.000E+00
                                         2.329E-01 0.000E+00 5.715E-01 0.000E+00
                                         1.028E-01 0.000E+00 5.499E-01 0.000E+00
                          14-    18 D  
                                         9.648E+00 0.000E+00 0.000E+00 2.198E-01
                                         2.943E+00 0.000E+00 0.000E+00 6.555E-01
                                         1.135E+00 0.000E+00 0.000E+00 2.866E-01
   2 CU   2.419  -1.397   1.975
   3 O    2.419   1.397  -1.804
                                 37 S  
                                         1.307E+02 1.543E-01 0.000E+00 0.000E+00
                                         2.381E+01 5.353E-01 0.000E+00 0.000E+00
                                         6.444E+00 4.446E-01 0.000E+00 0.000E+00
                                 38 S  
                                         5.033E+00-9.997E-02 0.000E+00 0.000E+00
                                         1.170E+00 3.995E-01 0.000E+00 0.000E+00
                                         3.804E-01 7.001E-01 0.000E+00 0.000E+00
                          39-    41 P  
                                         5.033E+00 0.000E+00 1.559E-01 0.000E+00
                                         1.170E+00 0.000E+00 6.077E-01 0.000E+00
                                         3.804E-01 0.000E+00 3.920E-01 0.000E+00
   4 O    2.419  -1.397  -1.804
   5 O    2.419   1.397   5.755
   6 O    2.419  -1.397   5.755

 *******************************************************************************
 FINISHED BASIS SET HANDLING 
 *******************************************************************************

 INFORMATION **** SET_MPP **** PCRYSTAL CALCULATION
 INFORMATION **** READM2 **** NEW DEFAULT: FOCK/KS MATRIX MIXING SET TO 30 %
 INFORMATION **** READM2 **** NEW DEFAULT: FULL DIRECT SCF MODE
 INFORMATION **** READM2 **** NEW DEFAULT: COULOMB BIPOLAR BUFFER SET TO 32 Mb
 INFORMATION **** READM2 **** NEW DEFAULT: EXCHANGE BIPOLAR BUFFER SET TO 32 Mb

 *******************************************************************************
 NEW DEFAULT: DFT INTEGRATION GRID INCREASED TO XLGRID
 NEW DEFAULT: DIIS ACCELERATOR ACTIVE
 USE KEYWORD NODIIS TO TURN IT OFF
 *******************************************************************************

 INFORMATION **** TOLINTEG **** COULOMB AND EXCHANGE SERIES TOLERANCES MODIFIED
 INFORMATION **** MAXCYCLE **** MAX NUMBER OF SCF CYCLES SET TO          20
 INFORMATION **** DIIS **** DIIS FOR SCF ACTIVE
 INFORMATION **** DIIS **** LEVEL SHIFTER DISABLED
 *******************************************************************************
 N. OF ATOMS PER CELL         6  COULOMB OVERLAP TOL         (T1) 10**   -5
 NUMBER OF SHELLS            28  COULOMB PENETRATION TOL     (T2) 10**   -5
 NUMBER OF AO                56  EXCHANGE OVERLAP TOL        (T3) 10**   -5
 N. OF ELECTRONS PER CELL    90  EXCHANGE PSEUDO OVP (F(G))  (T4) 10**   -5
 CORE ELECTRONS PER CELL     44  EXCHANGE PSEUDO OVP (P(G))  (T5) 10**  -10
 N. OF SYMMETRY OPERATORS    12  POLE ORDER IN MONO ZONE                  4
 *******************************************************************************
 TYPE OF CALCULATION :  RESTRICTED CLOSED SHELL
 KOHN-SHAM HAMILTONIAN

 (EXCHANGE)[CORRELATION] FUNCTIONAL:(BECKE 88)[LEE-YANG-PARR]

 NON-LOCAL WEIGHTING FACTOR (EXCHANGE) =           0.9000
 NON-LOCAL WEIGHTING FACTOR [CORRELATION] =        0.8100

 HYBRID EXCHANGE - PERCENTAGE OF FOCK EXCHANGE    20.0000

 CAPPA:IS1  6;IS2  6;IS3  1; K PTS MONK NET   7; SYMMOPS:K SPACE  24;G SPACE  12

 *******************************************************************************
 MAX NUMBER OF SCF CYCLES      20  CONVERGENCE ON DELTAP        10**-16
 WEIGHT OF F(I) IN F(I+1)      70% CONVERGENCE ON ENERGY        10**- 6
 SHRINK. FACT.(MONKH.)    6  6  1  NUMBER OF K POINTS IN THE IBZ      7
 SHRINKING FACTOR(GILAT NET)   12  NUMBER OF K POINTS(GILAT NET)     19
 *******************************************************************************
 *** K POINTS COORDINATES (OBLIQUE COORDINATES IN UNITS OF IS =  6)
   1-R(  0  0  0)   2-C(  1  0  0)   3-C(  2  0  0)   4-R(  3  0  0)
   5-C(  1  1  0)   6-C(  2  1  0)   7-C(  2  2  0)

 DIRECT LATTICE VECTORS COMPON. (A.U.)     RECIP. LATTICE VECTORS COMPON. (A.U.) 
        X            Y            Z              X            Y            Z
    2.4194342   -4.1905830    0.0000000      1.2984823   -0.7496791    0.0000000
    2.4194342    4.1905830    0.0000000      1.2984823    0.7496791    0.0000000
    0.0000000    0.0000000  944.8630670      0.0000000    0.0000000    0.0066498

 DISK SPACE FOR EIGENVECTORS (FTN 10)       37632 REALS

 SYMMETRY ADAPTION OF THE BLOCH FUNCTIONS ENABLED
 TTTTTTTTTTTTTTTTTTTTTTTTTTTTTT gordsh1     TELAPSE        0.01 TCPU        0.01

 MATRIX SIZE: P(G)   46704, F(G)   11067, P(G) IRR    3129, F(G) IRR    1704
 MAX G-VECTOR INDEX FOR 1- AND 2-ELECTRON INTEGRALS  85

 TTTTTTTTTTTTTTTTTTTTTTTTTTTTTT INPUT       TELAPSE        0.01 TCPU        0.01

 NEIGHBORS OF THE NON-EQUIVALENT ATOMS

 N = NUMBER OF NEIGHBORS AT DISTANCE R
    ATOM  N     R/ANG      R/AU   NEIGHBORS (ATOM LABELS AND CELL INDICES)
   1 CU   2     1.4784     2.7937    2 CU  -1 0 0    2 CU   0 1 0
   1 CU   1     1.4784     2.7937    2 CU   0 0 0
   1 CU   2     2.0000     3.7795    3 O    0 0 0    5 O    0 0 0
   1 CU   4     2.4871     4.6999    4 O   -1 0 0    6 O   -1 0 0    4 O    0 1 0
                                     6 O    0 1 0
   1 CU   2     2.4871     4.6999    4 O    0 0 0    6 O    0 0 0
   1 CU   6     2.5606     4.8389    1 CU  -1-1 0    1 CU   1 1 0    1 CU  -1 0 0
                                     1 CU   1 0 0    1 CU   0-1 0    1 CU   0 1 0

   3 O    2     1.4784     2.7937    4 O   -1 0 0    4 O    0 1 0
   3 O    1     1.4784     2.7937    4 O    0 0 0
   3 O    1     2.0000     3.7795    1 CU   0 0 0
   3 O    2     2.4871     4.6999    2 CU  -1 0 0    2 CU   0 1 0
   3 O    1     2.4871     4.6999    2 CU   0 0 0
   3 O    6     2.5606     4.8389    3 O   -1-1 0    3 O    1 1 0    3 O   -1 0 0
                                     3 O    1 0 0    3 O    0-1 0    3 O    0 1 0

   5 O    2     1.4784     2.7937    6 O   -1 0 0    6 O    0 1 0
   5 O    1     1.4784     2.7937    6 O    0 0 0
   5 O    1     2.0000     3.7795    1 CU   0 0 0
   5 O    2     2.4871     4.6999    2 CU  -1 0 0    2 CU   0 1 0
   5 O    1     2.4871     4.6999    2 CU   0 0 0
   5 O    6     2.5606     4.8389    5 O   -1-1 0    5 O    1 1 0    5 O   -1 0 0
                                     5 O    1 0 0    5 O    0-1 0    5 O    0 1 0


 SYMMETRY ALLOWED INTERNAL DEGREE(S) OF FREEDOM:   2
 WARNING **** CNSTRQ **** UNABLE TO REDUCE REPRESENTATION           3
 WARNING **** CNSTRQ **** UNABLE TO REDUCE REPRESENTATION           4
 TTTTTTTTTTTTTTTTTTTTTTTTTTTTTT SYMM        TELAPSE        0.01 TCPU        0.01
 TTTTTTTTTTTTTTTTTTTTTTTTTTTTTT INT_SCREEN  TELAPSE        0.01 TCPU        0.01
 INFORMATION **** EXCBUF **** EXCH. BIPO BUFFER: WORDS USED =      254430

 DFT PARAMETERS

     ATOM       ELECTRONS   NET CHARGE   R(ANGSTROM)
   1  29  CU     29.0000      0.0000     1.28000000
   3   8  O       8.0000      0.0000     0.74000000

 SIZE OF GRID=      47472
 TTTTTTTTTTTTTTTTTTTTTTTTTTTTTT MAKE_GRID2  TELAPSE        0.97 TCPU        0.97
 BECKE WEIGHT FUNCTION
 RADSAFE =     2.00
 TOLERANCES - DENSITY:10**- 6; POTENTIAL:10**- 9; GRID WGT:10**-14

 RADIAL INTEGRATION  - INTERVALS (POINTS,UPPER LIMIT):            1( 99,  4.0*R)

 ANGULAR INTEGRATION - INTERVALS (ACCURACY LEVEL [N. POINTS] UPPER LIMIT):
  1(  6[ 146]   0.2)  2( 11[ 302]   0.5)  3( 14[ 590]   0.9)  4( 18[1454]   3.5)
  5( 14[ 590]9999.0)
 TTTTTTTTTTTTTTTTTTTTTTTTTTTTTT INT_CALC    TELAPSE        0.98 TCPU        0.98
 EEEEEEEEEE INT_CALC TERMINATION  DATE 15 02 2022 TIME 08:11:41.4

 *******************************************************************************
 Adsorption tests                                                                
 CRYSTAL - SCF - TYPE OF CALCULATION :  RESTRICTED CLOSED SHELL
 *******************************************************************************

 CAPPA:IS1  6;IS2  6;IS3  1; K PTS MONK NET   7; SYMMOPS:K SPACE  24;G SPACE  12

 TTTTTTTTTTTTTTTTTTTTTTTTTTTTTT SDIK        TELAPSE        0.98 TCPU        0.98

 AAAAAAAAAAAAAAAAAAAAAAAAAAAAAAAAAAAAAAAAAAAAAAAAAAAAAAAAAAAAAAAAAAAAAAAAAAAAAAA
         ATOMIC WAVEFUNCTION(S)


 NUCLEAR CHARGE 29.0  SYMMETRY SPECIES            S    P    D
 N. ELECTRONS   29.0  NUMBER OF PRIMITIVE GTOS   12    9    3
                      NUMBER OF CONTRACTED GTOS   4    3    1
                      NUMBER OF CLOSED SHELLS     4    2    0
                      OPEN SHELL OCCUPATION       0    0    9

  ZNUC SCFIT  TOTAL HF ENERGY   KINETIC ENERGY   VIRIAL THEOREM ACCURACY
  29.0   5   -1.619844227E+03  1.626147454E+03 -1.996123828E+00  5.2E-07

 NUCLEAR CHARGE  8.0  SYMMETRY SPECIES            S    P
 N. ELECTRONS    8.0  NUMBER OF PRIMITIVE GTOS    6    3
                      NUMBER OF CONTRACTED GTOS   2    1
                      NUMBER OF CLOSED SHELLS     2    0
                      OPEN SHELL OCCUPATION       0    4

  ZNUC SCFIT  TOTAL HF ENERGY   KINETIC ENERGY   VIRIAL THEOREM ACCURACY
   8.0   1   -7.380415023E+01  7.344495887E+01 -2.004890620E+00  0.0E+00

 AAAAAAAAAAAAAAAAAAAAAAAAAAAAAAAAAAAAAAAAAAAAAAAAAAAAAAAAAAAAAAAAAAAAAAAAAAAAAAA

 CHARGE NORMALIZATION FACTOR   1.00000000
 TOTAL ATOMIC CHARGES:
  29.0000001  28.9999999   8.0000000   8.0000000   8.0000000   8.0000000
 TTTTTTTTTTTTTTTTTTTTTTTTTTTTTT MOQGAD      TELAPSE        1.00 TCPU        1.00
 TTTTTTTTTTTTTTTTTTTTTTTTTTTTTT SHELLXN     TELAPSE       18.68 TCPU       18.65
 TTTTTTTTTTTTTTTTTTTTTTTTTTTTTT MONMO3      TELAPSE       18.72 TCPU       18.69
 NUMERICALLY INTEGRATED DENSITY     89.9998751483
 TTTTTTTTTTTTTTTTTTTTTTTTTTTTTT NUMDFT      TELAPSE       19.82 TCPU       19.79
 CYC   0 ETOT(AU) -3.541811352022E+03 DETOT -3.54E+03 tst  0.00E+00 PX  1.00E+00
 TTTTTTTTTTTTTTTTTTTTTTTTTTTTTT DIIS        TELAPSE       19.82 TCPU       19.79
 TTTTTTTTTTTTTTTTTTTTTTTTTTTTTT FDIK        TELAPSE       19.83 TCPU       19.80
 POSSIBLY CONDUCTING STATE - EFERMI(AU)  4.1947580E-01 (RES. CHARGE  1.26E-11;IT. 12)
 TTTTTTTTTTTTTTTTTTTTTTTTTTTTTT PDIG        TELAPSE       19.83 TCPU       19.80
 CHARGE NORMALIZATION FACTOR   1.00000000
 TOTAL ATOMIC CHARGES:
  25.1524228  25.1524226   9.9237887   9.9237886   9.9237887   9.9237886
 TTTTTTTTTTTTTTTTTTTTTTTTTTTTTT MOQGAD      TELAPSE       19.85 TCPU       19.82
 TTTTTTTTTTTTTTTTTTTTTTTTTTTTTT SHELLXN     TELAPSE       37.91 TCPU       37.80
 TTTTTTTTTTTTTTTTTTTTTTTTTTTTTT MONMO3      TELAPSE       37.95 TCPU       37.84
 NUMERICALLY INTEGRATED DENSITY     89.9999831083
 TTTTTTTTTTTTTTTTTTTTTTTTTTTTTT NUMDFT      TELAPSE       40.73 TCPU       40.62
 CYC   1 ETOT(AU) -3.495320904719E+03 DETOT  4.65E+01 tst  0.00E+00 PX  1.00E+00
 TTTTTTTTTTTTTTTTTTTTTTTTTTTTTT DIIS        TELAPSE       40.73 TCPU       40.63
 DIIS TEST: 0.42326E+01 AT SCF   CYCLE   1 - MIX   70 %
 TTTTTTTTTTTTTTTTTTTTTTTTTTTTTT FDIK        TELAPSE       40.74 TCPU       40.63
 POSSIBLY CONDUCTING STATE - EFERMI(AU) -4.7611185E-01 (RES. CHARGE  1.54E-10;IT. 10)
 TTTTTTTTTTTTTTTTTTTTTTTTTTTTTT PDIG        TELAPSE       40.74 TCPU       40.63
 CHARGE NORMALIZATION FACTOR   0.99999997
 TOTAL ATOMIC CHARGES:
  34.3881258  34.3881235   5.3059377   5.3059377   5.3059377   5.3059376
 TTTTTTTTTTTTTTTTTTTTTTTTTTTTTT MOQGAD      TELAPSE       40.76 TCPU       40.65
 TTTTTTTTTTTTTTTTTTTTTTTTTTTTTT SHELLXN     TELAPSE       58.75 TCPU       58.64
 TTTTTTTTTTTTTTTTTTTTTTTTTTTTTT MONMO3      TELAPSE       58.79 TCPU       58.68
 NUMERICALLY INTEGRATED DENSITY     89.9988446179
 TTTTTTTTTTTTTTTTTTTTTTTTTTTTTT NUMDFT      TELAPSE       61.53 TCPU       61.42
 CYC   2 ETOT(AU) -3.492382016221E+03 DETOT  2.94E+00 tst  1.69E+01 PX  1.44E+02
 TTTTTTTTTTTTTTTTTTTTTTTTTTTTTT DIIS        TELAPSE       61.54 TCPU       61.42
 DIIS TEST: 0.16913E+01 AT SCF   CYCLE   2 - DIIS ACTIVE - HISTORY:     2 CYCLES
 TTTTTTTTTTTTTTTTTTTTTTTTTTTTTT FDIK        TELAPSE       61.54 TCPU       61.42
 POSSIBLY CONDUCTING STATE - EFERMI(AU)  3.4117494E+00 (RES. CHARGE  9.26E-10;IT. 12)
 TTTTTTTTTTTTTTTTTTTTTTTTTTTTTT PDIG        TELAPSE       61.54 TCPU       61.43
 CHARGE NORMALIZATION FACTOR   0.99999997
 TOTAL ATOMIC CHARGES:
  24.9281867  24.9281844  10.0359072  10.0359072  10.0359073  10.0359073
 TTTTTTTTTTTTTTTTTTTTTTTTTTTTTT MOQGAD      TELAPSE       61.56 TCPU       61.44
 TTTTTTTTTTTTTTTTTTTTTTTTTTTTTT SHELLXN     TELAPSE       79.63 TCPU       79.45
 TTTTTTTTTTTTTTTTTTTTTTTTTTTTTT MONMO3      TELAPSE       79.67 TCPU       79.49
 NUMERICALLY INTEGRATED DENSITY     90.0024390713
 TTTTTTTTTTTTTTTTTTTTTTTTTTTTTT NUMDFT      TELAPSE       82.43 TCPU       82.25
 CYC   3 ETOT(AU) -3.371624531659E+03 DETOT  1.21E+02 tst  2.20E+01 PX  9.47E+01
 TTTTTTTTTTTTTTTTTTTTTTTTTTTTTT DIIS        TELAPSE       82.43 TCPU       82.25
 DIIS TEST: 0.55335E+00 AT SCF   CYCLE   3 - DIIS ACTIVE - HISTORY:     3 CYCLES
 TTTTTTTTTTTTTTTTTTTTTTTTTTTTTT FDIK        TELAPSE       82.43 TCPU       82.25
 POSSIBLY CONDUCTING STATE - EFERMI(AU) -4.8005317E-01 (RES. CHARGE  1.91E-11;IT. 12)
 TTTTTTTTTTTTTTTTTTTTTTTTTTTTTT PDIG        TELAPSE       82.44 TCPU       82.26
 CHARGE NORMALIZATION FACTOR   0.99999999
 TOTAL ATOMIC CHARGES:
  34.2447135  34.2447121   5.3776436   5.3776436   5.3776436   5.3776435
 TTTTTTTTTTTTTTTTTTTTTTTTTTTTTT MOQGAD      TELAPSE       82.45 TCPU       82.28
 TTTTTTTTTTTTTTTTTTTTTTTTTTTTTT SHELLXN     TELAPSE      100.46 TCPU      100.24
 TTTTTTTTTTTTTTTTTTTTTTTTTTTTTT MONMO3      TELAPSE      100.50 TCPU      100.28
 NUMERICALLY INTEGRATED DENSITY     89.9994911639
 TTTTTTTTTTTTTTTTTTTTTTTTTTTTTT NUMDFT      TELAPSE      103.22 TCPU      102.99
 CYC   4 ETOT(AU) -3.434533602647E+03 DETOT -6.29E+01 tst  5.47E+02 PX  1.21E+02
 TTTTTTTTTTTTTTTTTTTTTTTTTTTTTT DIIS        TELAPSE      103.22 TCPU      102.99
 DIIS TEST: 0.12430E+01 AT SCF   CYCLE   4 - DIIS ACTIVE - HISTORY:     4 CYCLES
 TTTTTTTTTTTTTTTTTTTTTTTTTTTTTT FDIK        TELAPSE      103.22 TCPU      103.00
 POSSIBLY CONDUCTING STATE - EFERMI(AU) -3.3488361E-01 (RES. CHARGE  2.21E-11;IT. 10)
 TTTTTTTTTTTTTTTTTTTTTTTTTTTTTT PDIG        TELAPSE      103.23 TCPU      103.00
 CHARGE NORMALIZATION FACTOR   0.99999999
 TOTAL ATOMIC CHARGES:
  34.2394154  34.2394140   5.3802925   5.3802925   5.3802928   5.3802928
 TTTTTTTTTTTTTTTTTTTTTTTTTTTTTT MOQGAD      TELAPSE      103.24 TCPU      103.02
 TTTTTTTTTTTTTTTTTTTTTTTTTTTTTT SHELLXN     TELAPSE      121.10 TCPU      120.86
 TTTTTTTTTTTTTTTTTTTTTTTTTTTTTT MONMO3      TELAPSE      121.13 TCPU      120.90
 NUMERICALLY INTEGRATED DENSITY     89.9994646983
 TTTTTTTTTTTTTTTTTTTTTTTTTTTTTT NUMDFT      TELAPSE      123.87 TCPU      123.62
 CYC   5 ETOT(AU) -3.435227285435E+03 DETOT -6.94E-01 tst  4.98E-02 PX  2.04E+00
 TTTTTTTTTTTTTTTTTTTTTTTTTTTTTT DIIS        TELAPSE      123.88 TCPU      123.62
 DIIS TEST: 0.13958E+01 AT SCF   CYCLE   5 - DIIS ACTIVE - HISTORY:     5 CYCLES
 TTTTTTTTTTTTTTTTTTTTTTTTTTTTTT FDIK        TELAPSE      123.88 TCPU      123.63
 POSSIBLY CONDUCTING STATE - EFERMI(AU)  8.9608936E-04 (RES. CHARGE  3.58E-11;IT. 12)
 TTTTTTTTTTTTTTTTTTTTTTTTTTTTTT PDIG        TELAPSE      123.88 TCPU      123.63
 CHARGE NORMALIZATION FACTOR   0.99999999
 TOTAL ATOMIC CHARGES:
  33.9030496  33.9030481   5.5484755   5.5484755   5.5484757   5.5484757
 TTTTTTTTTTTTTTTTTTTTTTTTTTTTTT MOQGAD      TELAPSE      123.90 TCPU      123.65
 TTTTTTTTTTTTTTTTTTTTTTTTTTTTTT SHELLXN     TELAPSE      141.75 TCPU      141.48
 TTTTTTTTTTTTTTTTTTTTTTTTTTTTTT MONMO3      TELAPSE      141.78 TCPU      141.52
 NUMERICALLY INTEGRATED DENSITY     89.9994737317
 TTTTTTTTTTTTTTTTTTTTTTTTTTTTTT NUMDFT      TELAPSE      144.51 TCPU      144.24
 CYC   6 ETOT(AU) -3.445111764962E+03 DETOT -9.88E+00 tst  8.22E-02 PX  3.89E+00
 TTTTTTTTTTTTTTTTTTTTTTTTTTTTTT DIIS        TELAPSE      144.51 TCPU      144.25
 DIIS TEST: 0.10687E+01 AT SCF   CYCLE   6 - DIIS ACTIVE - HISTORY:     6 CYCLES
 TTTTTTTTTTTTTTTTTTTTTTTTTTTTTT FDIK        TELAPSE      144.52 TCPU      144.25
 POSSIBLY CONDUCTING STATE - EFERMI(AU)  6.2275604E-01 (RES. CHARGE  8.33E-12;IT. 10)
 TTTTTTTTTTTTTTTTTTTTTTTTTTTTTT PDIG        TELAPSE      144.52 TCPU      144.25
 CHARGE NORMALIZATION FACTOR   0.99999998
 TOTAL ATOMIC CHARGES:
  25.1172392  25.1172378   9.9413808   9.9413808   9.9413807   9.9413807
 TTTTTTTTTTTTTTTTTTTTTTTTTTTTTT MOQGAD      TELAPSE      144.54 TCPU      144.27
 TTTTTTTTTTTTTTTTTTTTTTTTTTTTTT SHELLXN     TELAPSE      162.39 TCPU      162.12
 TTTTTTTTTTTTTTTTTTTTTTTTTTTTTT MONMO3      TELAPSE      162.43 TCPU      162.16
 NUMERICALLY INTEGRATED DENSITY     89.9994067922
 TTTTTTTTTTTTTTTTTTTTTTTTTTTTTT NUMDFT      TELAPSE      165.20 TCPU      164.91
 CYC   7 ETOT(AU) -3.444331194729E+03 DETOT  7.81E-01 tst  6.29E+00 PX  1.50E+01
 TTTTTTTTTTTTTTTTTTTTTTTTTTTTTT DIIS        TELAPSE      165.20 TCPU      164.91
 DIIS TEST: 0.14006E+02 AT SCF   CYCLE   7 - DIIS ACTIVE - HISTORY:     7 CYCLES
 TTTTTTTTTTTTTTTTTTTTTTTTTTTTTT FDIK        TELAPSE      165.20 TCPU      164.92
 POSSIBLY CONDUCTING STATE - EFERMI(AU)  6.1959936E-01 (RES. CHARGE  1.59E-11;IT. 10)
 TTTTTTTTTTTTTTTTTTTTTTTTTTTTTT PDIG        TELAPSE      165.21 TCPU      164.92
 CHARGE NORMALIZATION FACTOR   0.99999998
 TOTAL ATOMIC CHARGES:
  25.1212489  25.1212475   9.9393714   9.9393714   9.9393804   9.9393804
 TTTTTTTTTTTTTTTTTTTTTTTTTTTTTT MOQGAD      TELAPSE      165.22 TCPU      164.94
 TTTTTTTTTTTTTTTTTTTTTTTTTTTTTT SHELLXN     TELAPSE      183.05 TCPU      182.77
 TTTTTTTTTTTTTTTTTTTTTTTTTTTTTT MONMO3      TELAPSE      183.09 TCPU      182.81
 NUMERICALLY INTEGRATED DENSITY     89.9994051554
 TTTTTTTTTTTTTTTTTTTTTTTTTTTTTT NUMDFT      TELAPSE      185.82 TCPU      185.53
 CYC   8 ETOT(AU) -3.444423011941E+03 DETOT -9.18E-02 tst  3.38E-04 PX  1.55E-01
 TTTTTTTTTTTTTTTTTTTTTTTTTTTTTT DIIS        TELAPSE      185.82 TCPU      185.54
 DIIS TEST: 0.13928E+02 AT SCF   CYCLE   8 - DIIS ACTIVE - HISTORY:     8 CYCLES
 TTTTTTTTTTTTTTTTTTTTTTTTTTTTTT FDIK        TELAPSE      185.83 TCPU      185.54
 POSSIBLY CONDUCTING STATE - EFERMI(AU)  6.0158574E-01 (RES. CHARGE  5.76E-13;IT.  8)
 TTTTTTTTTTTTTTTTTTTTTTTTTTTTTT PDIG        TELAPSE      185.83 TCPU      185.54
 CHARGE NORMALIZATION FACTOR   0.99999998
 TOTAL ATOMIC CHARGES:
  25.1970142  25.1970128   9.9014809   9.9014808   9.9015056   9.9015056
 TTTTTTTTTTTTTTTTTTTTTTTTTTTTTT MOQGAD      TELAPSE      185.85 TCPU      185.56
 TTTTTTTTTTTTTTTTTTTTTTTTTTTTTT SHELLXN     TELAPSE      203.75 TCPU      203.44
 TTTTTTTTTTTTTTTTTTTTTTTTTTTTTT MONMO3      TELAPSE      203.79 TCPU      203.48
 NUMERICALLY INTEGRATED DENSITY     89.9994061772
 TTTTTTTTTTTTTTTTTTTTTTTTTTTTTT NUMDFT      TELAPSE      206.51 TCPU      206.21
 CYC   9 ETOT(AU) -3.445805867817E+03 DETOT -1.38E+00 tst  1.10E-04 PX  1.22E-01
 TTTTTTTTTTTTTTTTTTTTTTTTTTTTTT DIIS        TELAPSE      206.51 TCPU      206.21
 DIIS TEST: 0.13591E+02 AT SCF   CYCLE   9 - DIIS ACTIVE - HISTORY:     9 CYCLES
 TTTTTTTTTTTTTTTTTTTTTTTTTTTTTT FDIK        TELAPSE      206.52 TCPU      206.21
 POSSIBLY CONDUCTING STATE - EFERMI(AU)  6.5765295E-01 (RES. CHARGE  2.91E-13;IT. 10)
 TTTTTTTTTTTTTTTTTTTTTTTTTTTTTT PDIG        TELAPSE      206.52 TCPU      206.22
 CHARGE NORMALIZATION FACTOR   0.99999998
 TOTAL ATOMIC CHARGES:
  25.1128991  25.1128977   9.9435760   9.9435760   9.9435256   9.9435256
 TTTTTTTTTTTTTTTTTTTTTTTTTTTTTT MOQGAD      TELAPSE      206.54 TCPU      206.23
 TTTTTTTTTTTTTTTTTTTTTTTTTTTTTT SHELLXN     TELAPSE      224.42 TCPU      224.11
 TTTTTTTTTTTTTTTTTTTTTTTTTTTTTT MONMO3      TELAPSE      224.46 TCPU      224.15
 NUMERICALLY INTEGRATED DENSITY     89.9993921844
 TTTTTTTTTTTTTTTTTTTTTTTTTTTTTT NUMDFT      TELAPSE      227.18 TCPU      226.87
 CYC  10 ETOT(AU) -3.443116416991E+03 DETOT  2.69E+00 tst  3.66E-03 PX  1.11E+00
 TTTTTTTTTTTTTTTTTTTTTTTTTTTTTT DIIS        TELAPSE      227.19 TCPU      226.87
 DIIS TEST: 0.13758E+02 AT SCF   CYCLE  10 - DIIS ACTIVE - HISTORY:    10 CYCLES
 TTTTTTTTTTTTTTTTTTTTTTTTTTTTTT FDIK        TELAPSE      227.19 TCPU      226.88
 POSSIBLY CONDUCTING STATE - EFERMI(AU)  3.0208819E-01 (RES. CHARGE  2.98E-10;IT. 10)
 TTTTTTTTTTTTTTTTTTTTTTTTTTTTTT PDIG        TELAPSE      227.19 TCPU      226.88
 CHARGE NORMALIZATION FACTOR   0.99999997
 TOTAL ATOMIC CHARGES:
  27.3737966  27.3737946   8.8132215   8.8132215   8.8129829   8.8129829
 TTTTTTTTTTTTTTTTTTTTTTTTTTTTTT MOQGAD      TELAPSE      227.21 TCPU      226.90
 TTTTTTTTTTTTTTTTTTTTTTTTTTTTTT SHELLXN     TELAPSE      245.08 TCPU      244.76
 TTTTTTTTTTTTTTTTTTTTTTTTTTTTTT MONMO3      TELAPSE      245.12 TCPU      244.80
 NUMERICALLY INTEGRATED DENSITY     89.9981774692
 TTTTTTTTTTTTTTTTTTTTTTTTTTTTTT NUMDFT      TELAPSE      247.84 TCPU      247.51
 CYC  11 ETOT(AU) -3.466628397624E+03 DETOT -2.35E+01 tst  4.89E-01 PX  4.15E+01
 TTTTTTTTTTTTTTTTTTTTTTTTTTTTTT DIIS        TELAPSE      247.84 TCPU      247.51
 DIIS TEST: 0.40800E+01 AT SCF   CYCLE  11 - DIIS ACTIVE - HISTORY:    11 CYCLES
 TTTTTTTTTTTTTTTTTTTTTTTTTTTTTT FDIK        TELAPSE      247.84 TCPU      247.52
 POSSIBLY CONDUCTING STATE - EFERMI(AU)  3.0964368E+00 (RES. CHARGE  2.30E-11;IT. 10)
 TTTTTTTTTTTTTTTTTTTTTTTTTTTTTT PDIG        TELAPSE      247.85 TCPU      247.52
 CHARGE NORMALIZATION FACTOR   0.99999997
 TOTAL ATOMIC CHARGES:
  24.9617912  24.9617888  10.0191067  10.0191066  10.0191034  10.0191033
 TTTTTTTTTTTTTTTTTTTTTTTTTTTTTT MOQGAD      TELAPSE      247.86 TCPU      247.54
 TTTTTTTTTTTTTTTTTTTTTTTTTTTTTT SHELLXN     TELAPSE      265.72 TCPU      265.39
 TTTTTTTTTTTTTTTTTTTTTTTTTTTTTT MONMO3      TELAPSE      265.76 TCPU      265.43
 NUMERICALLY INTEGRATED DENSITY     89.9986330049
 TTTTTTTTTTTTTTTTTTTTTTTTTTTTTT NUMDFT      TELAPSE      268.49 TCPU      268.16
 CYC  12 ETOT(AU) -3.494474744307E+03 DETOT -2.78E+01 tst  7.24E+01 PX  8.77E+01
 TTTTTTTTTTTTTTTTTTTTTTTTTTTTTT DIIS        TELAPSE      268.49 TCPU      268.16
 DIIS TEST: 0.17847E+01 AT SCF   CYCLE  12 - DIIS ACTIVE - HISTORY:    12 CYCLES
 TTTTTTTTTTTTTTTTTTTTTTTTTTTTTT FDIK        TELAPSE      268.49 TCPU      268.16
 POSSIBLY CONDUCTING STATE - EFERMI(AU)  3.0196492E+00 (RES. CHARGE  3.13E-11;IT. 10)
 TTTTTTTTTTTTTTTTTTTTTTTTTTTTTT PDIG        TELAPSE      268.50 TCPU      268.17
 CHARGE NORMALIZATION FACTOR   0.99999997
 TOTAL ATOMIC CHARGES:
  24.9611648  24.9611624  10.0194086  10.0194086  10.0194278  10.0194278
 TTTTTTTTTTTTTTTTTTTTTTTTTTTTTT MOQGAD      TELAPSE      268.51 TCPU      268.18
 TTTTTTTTTTTTTTTTTTTTTTTTTTTTTT SHELLXN     TELAPSE      286.52 TCPU      286.13
 TTTTTTTTTTTTTTTTTTTTTTTTTTTTTT MONMO3      TELAPSE      286.56 TCPU      286.17
 NUMERICALLY INTEGRATED DENSITY     89.9986428084
 TTTTTTTTTTTTTTTTTTTTTTTTTTTTTT NUMDFT      TELAPSE      289.29 TCPU      288.90
 CYC  13 ETOT(AU) -3.495101274728E+03 DETOT -6.27E-01 tst  1.46E-02 PX  5.18E-01
 TTTTTTTTTTTTTTTTTTTTTTTTTTTTTT DIIS        TELAPSE      289.29 TCPU      288.90
 DIIS TEST: 0.23353E+01 AT SCF   CYCLE  13 - DIIS ACTIVE - HISTORY:    13 CYCLES
 TTTTTTTTTTTTTTTTTTTTTTTTTTTTTT FDIK        TELAPSE      289.29 TCPU      288.90
 POSSIBLY CONDUCTING STATE - EFERMI(AU)  3.0891538E+00 (RES. CHARGE  1.03E-12;IT. 10)
 TTTTTTTTTTTTTTTTTTTTTTTTTTTTTT PDIG        TELAPSE      289.30 TCPU      288.91
 CHARGE NORMALIZATION FACTOR   0.99999997
 TOTAL ATOMIC CHARGES:
  24.9596649  24.9596625  10.0201681  10.0201680  10.0201683  10.0201683
 TTTTTTTTTTTTTTTTTTTTTTTTTTTTTT MOQGAD      TELAPSE      289.32 TCPU      288.92
 TTTTTTTTTTTTTTTTTTTTTTTTTTTTTT SHELLXN     TELAPSE      307.28 TCPU      306.87
 TTTTTTTTTTTTTTTTTTTTTTTTTTTTTT MONMO3      TELAPSE      307.32 TCPU      306.91
 NUMERICALLY INTEGRATED DENSITY     89.9986119328
 TTTTTTTTTTTTTTTTTTTTTTTTTTTTTT NUMDFT      TELAPSE      310.10 TCPU      309.67
 CYC  14 ETOT(AU) -3.495163409923E+03 DETOT -6.21E-02 tst  1.45E-01 PX  1.97E+00
 TTTTTTTTTTTTTTTTTTTTTTTTTTTTTT DIIS        TELAPSE      310.10 TCPU      309.67
 DIIS TEST: 0.34096E+01 AT SCF   CYCLE  14 - DIIS ACTIVE - HISTORY:    14 CYCLES
 TTTTTTTTTTTTTTTTTTTTTTTTTTTTTT FDIK        TELAPSE      310.11 TCPU      309.68
 POSSIBLY CONDUCTING STATE - EFERMI(AU)  3.0953561E+00 (RES. CHARGE  6.96E-11;IT.  8)
 TTTTTTTTTTTTTTTTTTTTTTTTTTTTTT PDIG        TELAPSE      310.11 TCPU      309.68
 CHARGE NORMALIZATION FACTOR   0.99999997
 TOTAL ATOMIC CHARGES:
  24.9595885  24.9595861  10.0202063  10.0202063  10.0202064  10.0202064
 TTTTTTTTTTTTTTTTTTTTTTTTTTTTTT MOQGAD      TELAPSE      310.13 TCPU      309.70
 TTTTTTTTTTTTTTTTTTTTTTTTTTTTTT SHELLXN     TELAPSE      328.12 TCPU      327.68
 TTTTTTTTTTTTTTTTTTTTTTTTTTTTTT MONMO3      TELAPSE      328.16 TCPU      327.72
 NUMERICALLY INTEGRATED DENSITY     89.9986123968
 TTTTTTTTTTTTTTTTTTTTTTTTTTTTTT NUMDFT      TELAPSE      330.89 TCPU      330.44
 CYC  15 ETOT(AU) -3.495134239774E+03 DETOT  2.92E-02 tst  1.41E-05 PX  2.37E-02
 TTTTTTTTTTTTTTTTTTTTTTTTTTTTTT DIIS        TELAPSE      330.89 TCPU      330.44
 DIIS TEST: 0.34072E+01 AT SCF   CYCLE  15 - DIIS ACTIVE - HISTORY:    15 CYCLES
 TTTTTTTTTTTTTTTTTTTTTTTTTTTTTT FDIK        TELAPSE      330.89 TCPU      330.45
 POSSIBLY CONDUCTING STATE - EFERMI(AU)  3.1066994E+00 (RES. CHARGE  1.08E-12;IT. 10)
 TTTTTTTTTTTTTTTTTTTTTTTTTTTTTT PDIG        TELAPSE      330.90 TCPU      330.45
 CHARGE NORMALIZATION FACTOR   0.99999997
 TOTAL ATOMIC CHARGES:
  24.9597982  24.9597958  10.0200940  10.0200940  10.0201090  10.0201090
 TTTTTTTTTTTTTTTTTTTTTTTTTTTTTT MOQGAD      TELAPSE      330.91 TCPU      330.47
 TTTTTTTTTTTTTTTTTTTTTTTTTTTTTT SHELLXN     TELAPSE      348.85 TCPU      348.40
 TTTTTTTTTTTTTTTTTTTTTTTTTTTTTT MONMO3      TELAPSE      348.88 TCPU      348.44
 NUMERICALLY INTEGRATED DENSITY     89.9986145261
 TTTTTTTTTTTTTTTTTTTTTTTTTTTTTT NUMDFT      TELAPSE      351.68 TCPU      351.21
 CYC  16 ETOT(AU) -3.494997946876E+03 DETOT  1.36E-01 tst  1.29E-04 PX  1.04E-01
 TTTTTTTTTTTTTTTTTTTTTTTTTTTTTT DIIS        TELAPSE      351.68 TCPU      351.21
 DIIS TEST: 0.33951E+01 AT SCF   CYCLE  16 - DIIS ACTIVE - HISTORY:    16 CYCLES
 TTTTTTTTTTTTTTTTTTTTTTTTTTTTTT FDIK        TELAPSE      351.69 TCPU      351.21
 POSSIBLY CONDUCTING STATE - EFERMI(AU)  3.0816186E+00 (RES. CHARGE  6.68E-13;IT. 10)
 TTTTTTTTTTTTTTTTTTTTTTTTTTTTTT PDIG        TELAPSE      351.69 TCPU      351.22
 CHARGE NORMALIZATION FACTOR   0.99999997
 TOTAL ATOMIC CHARGES:
  24.9596150  24.9596126  10.0201929  10.0201928  10.0201933  10.0201933
 TTTTTTTTTTTTTTTTTTTTTTTTTTTTTT MOQGAD      TELAPSE      351.70 TCPU      351.23
 TTTTTTTTTTTTTTTTTTTTTTTTTTTTTT SHELLXN     TELAPSE      369.91 TCPU      369.33
 TTTTTTTTTTTTTTTTTTTTTTTTTTTTTT MONMO3      TELAPSE      369.94 TCPU      369.37
 NUMERICALLY INTEGRATED DENSITY     89.9986192406
 TTTTTTTTTTTTTTTTTTTTTTTTTTTTTT NUMDFT      TELAPSE      372.66 TCPU      372.08
 CYC  17 ETOT(AU) -3.495012349118E+03 DETOT -1.44E-02 tst  1.76E-03 PX  4.91E-01
 TTTTTTTTTTTTTTTTTTTTTTTTTTTTTT DIIS        TELAPSE      372.66 TCPU      372.09
 DIIS TEST: 0.12896E+01 AT SCF   CYCLE  17 - DIIS ACTIVE - HISTORY:    17 CYCLES
 TTTTTTTTTTTTTTTTTTTTTTTTTTTTTT FDIK        TELAPSE      372.67 TCPU      372.09
 POSSIBLY CONDUCTING STATE - EFERMI(AU)  2.9563289E+00 (RES. CHARGE  2.20E-13;IT. 10)
 TTTTTTTTTTTTTTTTTTTTTTTTTTTTTT PDIG        TELAPSE      372.67 TCPU      372.09
 CHARGE NORMALIZATION FACTOR   0.99999997
 TOTAL ATOMIC CHARGES:
  24.9590464  24.9590440  10.0205023  10.0205023  10.0204525  10.0204525
 TTTTTTTTTTTTTTTTTTTTTTTTTTTTTT MOQGAD      TELAPSE      372.69 TCPU      372.11
 TTTTTTTTTTTTTTTTTTTTTTTTTTTTTT SHELLXN     TELAPSE      390.91 TCPU      390.21
 TTTTTTTTTTTTTTTTTTTTTTTTTTTTTT MONMO3      TELAPSE      390.95 TCPU      390.25
 NUMERICALLY INTEGRATED DENSITY     89.9986054539
 TTTTTTTTTTTTTTTTTTTTTTTTTTTTTT NUMDFT      TELAPSE      393.68 TCPU      392.97
 CYC  18 ETOT(AU) -3.496240450606E+03 DETOT -1.23E+00 tst  6.36E-02 PX  1.83E+00
 TTTTTTTTTTTTTTTTTTTTTTTTTTTTTT DIIS        TELAPSE      393.68 TCPU      392.97
 DIIS TEST: 0.13500E+01 AT SCF   CYCLE  18 - DIIS ACTIVE - HISTORY:    18 CYCLES
 TTTTTTTTTTTTTTTTTTTTTTTTTTTTTT FDIK        TELAPSE      393.68 TCPU      392.98
 POSSIBLY CONDUCTING STATE - EFERMI(AU)  2.9015244E+00 (RES. CHARGE  2.20E-13;IT.  6)
 TTTTTTTTTTTTTTTTTTTTTTTTTTTTTT PDIG        TELAPSE      393.69 TCPU      392.98
 CHARGE NORMALIZATION FACTOR   0.99999997
 TOTAL ATOMIC CHARGES:
  24.9600063  24.9600040  10.0199970  10.0199969  10.0199979  10.0199979
 TTTTTTTTTTTTTTTTTTTTTTTTTTTTTT MOQGAD      TELAPSE      393.70 TCPU      393.00
 TTTTTTTTTTTTTTTTTTTTTTTTTTTTTT SHELLXN     TELAPSE      411.95 TCPU      411.10
 TTTTTTTTTTTTTTTTTTTTTTTTTTTTTT MONMO3      TELAPSE      411.99 TCPU      411.14
 NUMERICALLY INTEGRATED DENSITY     89.9986226264
 TTTTTTTTTTTTTTTTTTTTTTTTTTTTTT NUMDFT      TELAPSE      414.71 TCPU      413.86
 CYC  19 ETOT(AU) -3.496403264586E+03 DETOT -1.63E-01 tst  1.37E-01 PX  2.47E+00
 TTTTTTTTTTTTTTTTTTTTTTTTTTTTTT DIIS        TELAPSE      414.71 TCPU      413.86
 DIIS TEST: 0.19208E+01 AT SCF   CYCLE  19 - DIIS ACTIVE - HISTORY:    19 CYCLES
 TTTTTTTTTTTTTTTTTTTTTTTTTTTTTT FDIK        TELAPSE      414.72 TCPU      413.87
 POSSIBLY CONDUCTING STATE - EFERMI(AU)  2.6147146E+00 (RES. CHARGE  8.53E-13;IT. 10)
 TTTTTTTTTTTTTTTTTTTTTTTTTTTTTT PDIG        TELAPSE      414.72 TCPU      413.87
 CHARGE NORMALIZATION FACTOR   0.99999997
 TOTAL ATOMIC CHARGES:
  24.9606172  24.9606148  10.0196967  10.0196967  10.0196873  10.0196873
 TTTTTTTTTTTTTTTTTTTTTTTTTTTTTT MOQGAD      TELAPSE      414.74 TCPU      413.89
 TTTTTTTTTTTTTTTTTTTTTTTTTTTTTT SHELLXN     TELAPSE      432.92 TCPU      432.01

 ::: DIPOLE MOMENT ALONG NON PERIODIC DIRECTIONS:
 ::: A.U.     (Z) -2.21860E-03
 ::: DEBYE         5.63913E-03

 +++ ENERGIES IN A.U. +++
 ::: EXT EL-POLE                                  -1.0690117424135E+04
 ::: EXT EL-SPHEROPOLE                             0.0000000000000E+00
 ::: BIELET ZONE E-E                               7.6168283376208E+03
 ::: TOTAL E-E                                    -3.0732890865147E+03
 ::: TOTAL E-N + N-E                               1.7216815722649E+02
 ::: TOTAL N-N                                    -3.9236621711403E+03
 ::: KINETIC ENERGY                                3.4565002152614E+03
 ::: PSEUDO TOTAL   ENERGY                        -3.3682828851671E+03
 ::: VIRIAL COEFFICIENT                            1.0129260269222E+00
 TTTTTTTTTTTTTTTTTTTTTTTTTTTTTT MONMO3      TELAPSE      432.96 TCPU      432.05
 NUMERICALLY INTEGRATED DENSITY     89.9986099176
 TTTTTTTTTTTTTTTTTTTTTTTTTTTTTT NUMDFT      TELAPSE      435.68 TCPU      434.77
 CYC  20 ETOT(AU) -3.498398525292E+03 DETOT -2.00E+00 tst  5.10E-03 PX  2.47E+00

 == SCF ENDED - TOO MANY CYCLES            E(AU) -3.4983985252918E+03 CYCLES  20


 ENERGY EXPRESSION=HARTREE+FOCK EXCH*0.20000+(BECKE      EXCH)*0.80000+LYP        CORR


 TOTAL ENERGY(DFT)(AU)( 20) -3.4983985252918E+03 DE-2.0E+00 tester 5.1E-03
 TTTTTTTTTTTTTTTTTTTTTTTTTTTTTT EDFT        TELAPSE      435.68 TCPU      434.77
 EIGENVECTORS IN FORTRAN UNIT  8
 TTTTTTTTTTTTTTTTTTTTTTTTTTTTTT END         TELAPSE      435.69 TCPU      434.78
 EEEEEEEEEE TERMINATION  DATE 15 02 2022 TIME 08:18:56.2
Tue 15 Feb 2022 08:18:56 GMT
Contents of temporary directory:
total 3368
-rw-r--r--  1 brunocamino  admin  272800 15 Feb 08:18 diis_Fg
-rw-r--r--  1 brunocamino  admin  113472 15 Feb 08:18 diis_Fia1
-rw-r--r--  1 brunocamino  admin  119776 15 Feb 08:18 diis_Fia2
-rw-r--r--  1 brunocamino  admin       0 14 Feb 20:32 diis_Sk
-rw-r--r--  1 brunocamino  admin  160864 15 Feb 08:18 fort.10
-rw-r--r--  1 brunocamino  admin   13640 15 Feb 08:18 fort.11
-rw-r--r--  1 brunocamino  admin    3543 15 Feb 08:11 fort.34
-rw-r--r--  1 brunocamino  admin   20880 15 Feb 08:11 fort.61
-rw-r--r--  1 brunocamino  admin   16768 15 Feb 08:11 fort.62
-rw-r--r--  1 brunocamino  admin  160864 15 Feb 08:18 fort.8
-rw-r--r--  1 brunocamino  admin  162028 15 Feb 08:18 fort.9
-rw-r--r--  1 brunocamino  admin   31856 15 Feb 08:18 fort.95
-rw-r--r--  1 brunocamino  admin  413924 15 Feb 08:18 fort.98
wave function binary file /Users/brunocamino/Desktop/Imperial/cmsg_icl/ml-surface-adsorption/data/Cu_O_100_1.f9
file fort.98 saved as /Users/brunocamino/Desktop/Imperial/cmsg_icl/ml-surface-adsorption/data/Cu_O_100_1.f98
geometry input file fort.34 saved as /Users/brunocamino/Desktop/Imperial/cmsg_icl/ml-surface-adsorption/data/Cu_O_100_1.gui
temporary directory /Users/brunocamino/crystal/tmp removed
