date Tue 15 Feb 2022 17:47:39 GMT
hostname MacBook-Pro-3.local
system Darwin MacBook-Pro-3.local 21.3.0 Darwin Kernel Version 21.3.0: Wed Jan 5 21:37:58 PST 2022; root:xnu-8019.80.24~20/RELEASE_ARM64_T8101 arm64
user brunocamino
output data in /Users/brunocamino/Desktop/Imperial/cmsg_icl/ml-surface-adsorption/data/Cu_O_100_7_BSSE_sub.out
crystal executable in /Users/brunocamino/crystal
input data in /Users/brunocamino/Desktop/Imperial/cmsg_icl/ml-surface-adsorption/data/Cu_O_100_7_BSSE_sub.d12
temporary directory /Users/brunocamino/crystal/tmp
external geometry input from /Users/brunocamino/Desktop/Imperial/cmsg_icl/ml-surface-adsorption/data/Cu_O_100_7_BSSE_sub.gui
external geometry input saved in /Users/brunocamino/Desktop/Imperial/cmsg_icl/ml-surface-adsorption/data/Cu_O_100_7_BSSE_sub_inp.gui
Adsorption tests
EXTERNAL
EXTPRT
BASISSET
STO-3G
GHOSTS
2
3 4
DFT
B3LYP
XXLGRID
ENDDFT
TOLINTEG
5 5 5 5 10
SHRINK
6 12
MAXCYCLE
20
ENDSCF

         
 *******************************************************************************
 *                                                                             *
 *                               CRYSTAL17                                     *
 *                      public : 1.0.2 - March 1st, 2018                       *
 *                       HTTP://WWW.CRYSTAL.UNITO.IT                           *
 *                                                                             *
 *                              MAIN AUTHORS                                   *
 *                                                                             *
 *  R. DOVESI(1,11), V.R. SAUNDERS(2), C. ROETTI(1,11), R. ORLANDO(1,11),      *
 *  C.M. ZICOVICH-WILSON(1,3), F. PASCALE(4), B. CIVALLERI(1,11),              *
 *  K. DOLL(5), N.M. HARRISON(2,6), I.J. BUSH(7), Ph. D'ARCO(8),               *
 *  M. LLUNELL(9), M. CAUSA'(10), Y. NOEL(8), L. MASCHIO(1,11), A. ERBA(1,11)  *
 *  M. RE'RAT(14), S. CASASSA(1,11)                                            *
 *                                                                             *
 *        CONTRIBUTIONS TO THE CODE HAVE ALSO BEEN GIVEN BY                    *
 *                                                                             *
 *  M. FERRABONE(1,11), M. DE LA PIERRE(1,11), M. FERRERO(1,11),               *
 *  J. BAIMA(1,11), E. ALBANESE(1,11), M.F. PEINTINGER(12), R. BAST(13),       *
 *  B. KIRTMAN(15), V. LACIVITA(1,11), R. DEMICHELIS(1,16)                     *
 *  G. BRANDEBURG(17), S. SALUSTRO(1,11), G. SANSONE(1,11)                     *
 *  M.T. RUGGIERO(18)                                                          *
 *                                                                             *
 * (1) THEORETICAL CHEMISTRY GROUP - UNIVERSITA' DI TORINO - TORINO (ITALY)    *
 * (2) COMPUTATIONAL SCIENCE & ENGINEERING DEPARTMENT - STFC DARESBURY (UK)    *
 * (3) UNIVERSIDAD AUTONOMA DEL ESTADO DE MORELOS - CUERNAVACA (MEXICO)        *
 * (4) UNIVERSITE' DE LORRAINE - NANCY (FRANCE)                                *
 * (5) UNIVERSITAET STUTTGART- STUTTGART (GERMANY)                             *
 * (6) IMPERIAL COLLEGE - LONDON (UK)                                          *
 * (7) OXFORD E-RESEARCH CENTRE - OXFORD (UK)                                  *
 * (8) UPMC - SORBONNE UNIVERSITES - PARIS (FRANCE)                            *
 * (9) UNIVERSIDAD DE BARCELONA - BARCELONA (SPAIN)                            *
 *(10) UNIVERSITA' DI NAPOLI "FEDERICO II" - NAPOLI (ITALY)                    *
 *(11) NIS - NANOSTRUCTURED INTERFACES AND SURFACES - TORINO (ITALY)           *
 *(12) MPI FUER CHEMISCHE ENERGIEKONVERSION - MUELHEIM AN DER RUHR (GERMANY)   *
 *(13) UNIVERSITY OF TROMSO - TROMSO (NORWAY)                                  *
 *(14) UNIVERSITE' DE PAU ET DES PAYS DE L'ADOUR - PAU (FRANCE)                *
 *(15) UNIVERSITY OF CALIFORNIA SANTA BARBARA - SANTA BARBARA (USA)            *
 *(16) CURTIN UNIVERSITY - PERTH (AUSTRALIA)                                   *
 *(17) UNIVERSITY COLLEGE LONDON - LONDON (UK)                                 *
 *(18) CAMBRIDGE UNIVERSITY - CAMBRIDGE (UK)                                   *
 *                                                                             *
 *******************************************************************************
 EEEEEEEEEE STARTING  DATE 15 02 2022 TIME 17:47:39.2
 Adsorption tests                                                                

 GEOMETRY INPUT FROM EXTERNAL FILE (FORTRAN UNIT 34)
 2D - SLAB    

 *******************************************************************************
 LATTICE PARAMETERS  (ANGSTROMS AND DEGREES) - PRIMITIVE CELL
       A          B          C        ALPHA      BETA     GAMMA        VOLUME
    2.56062    3.62126  500.00000    90.00000  90.00000  90.00000      9.272672
 INFORMATION **** CHKGRP **** SPGR WITH NO INVERSION

 NUMBER OF IRREDUCIBLE ATOMS IN THE CELL:    4

 CARTESIAN COORDINATES (ANGSTROM) - IRREDUCIBLE ATOMS AND SYMMETRY RELATED

 AT.IRR.  AT  AT.N.          X                   Y                   Z
     1     1    29    1.920460000000E+00  0.000000000000E+00  1.920460000000E+00
     1     2    29    6.401589166530E-01  0.000000000000E+00  1.920460000000E+00
     3     3    29    6.401500000000E-01  1.810631000000E+00  6.401500000000E-01
     3     4    29   -6.401500000000E-01 -1.810631000000E+00  6.401500000000E-01
     5     5     8    6.401500000000E-01  0.000000000000E+00 -1.359850000000E+00
     5     6     8   -6.401500000000E-01  0.000000000000E+00 -1.359850000000E+00
     7     7     8    1.920460000000E+00  1.810631000000E+00  3.920460000000E+00
     7     8     8    6.401589166530E-01 -1.810631000000E+00  3.920460000000E+00

 SYMMETRY CHANGED DURING OLD RUN :  INFORMATION ON SPACE GROUP LOST 
 NUMBER OF SYMMETRY OPERATORS         :    4
 *******************************************************************************
 LATTICE PARAMETERS (ANGSTROMS AND DEGREES) - BOHR = 0.5291772083 ANGSTROM
 PRIMITIVE CELL
         A              B              C           ALPHA      BETA       GAMMA 
     2.56061892     3.62126200   500.00000000    90.000000  90.000000  90.000000
 *******************************************************************************
 ATOMS IN THE ASYMMETRIC UNIT    4 - ATOMS IN THE UNIT CELL:    8
     ATOM                 X/A                 Y/B             Z(ANGSTROM)
 *******************************************************************************
      1 T  29 CU   -2.500016353419E-01  0.000000000000E+00  1.920460000000E+00
      2 F  29 CU    2.500016353431E-01  0.000000000000E+00  1.920460000000E+00
      3 T  29 CU    2.499981531174E-01  5.000000000000E-01  6.401500000000E-01
      4 F  29 CU   -2.499981531174E-01 -5.000000000000E-01  6.401500000000E-01
      5 T   8 O     2.499981531174E-01  0.000000000000E+00 -1.359850000000E+00
      6 F   8 O    -2.499981531174E-01  0.000000000000E+00 -1.359850000000E+00
      7 T   8 O    -2.500016353419E-01  5.000000000000E-01  3.920460000000E+00
      8 F   8 O     2.500016353431E-01 -5.000000000000E-01  3.920460000000E+00

 T = ATOM BELONGING TO THE ASYMMETRIC UNIT
 *******************************************************************************
 * GEOMETRY EDITING - INPUT COORDINATES ARE GIVEN IN ANGSTROM         
 *******************************************************************************

 GEOMETRY NOW FULLY CONSISTENT WITH THE GROUP

 GCALCO - MAX INDICES DIRECT LATTICE VECTOR    98    69     0
 NO.OF VECTORS CREATED 6999 STARS 1080 RMAX   271.49459 BOHR

 GEOMETRY FOR WAVE FUNCTION - DIMENSIONALITY OF THE SYSTEM    2
 (NON PERIODIC DIRECTION: LATTICE PARAMETER FORMALLY SET TO 500)
 *******************************************************************************
 LATTICE PARAMETERS (ANGSTROMS AND DEGREES) - BOHR = 0.5291772083 ANGSTROM
 PRIMITIVE CELL
         A              B              C           ALPHA      BETA       GAMMA 
     2.56061892     3.62126200   500.00000000    90.000000  90.000000  90.000000
 *******************************************************************************
 ATOMS IN THE ASYMMETRIC UNIT    4 - ATOMS IN THE UNIT CELL:    8
     ATOM                 X/A                 Y/B             Z(ANGSTROM)
 *******************************************************************************
      1 T  29 CU   -2.500016353419E-01  0.000000000000E+00  1.920460000000E+00
      2 F  29 CU    2.500016353419E-01  0.000000000000E+00  1.920460000000E+00
      3 T  29 CU    2.499981531174E-01  5.000000000000E-01  6.401500000000E-01
      4 F  29 CU   -2.499981531174E-01  5.000000000000E-01  6.401500000000E-01
      5 T   8 O     2.499981531174E-01  0.000000000000E+00 -1.359850000000E+00
      6 F   8 O    -2.499981531174E-01  0.000000000000E+00 -1.359850000000E+00
      7 T   8 O    -2.500016353419E-01  5.000000000000E-01  3.920460000000E+00
      8 F   8 O     2.500016353419E-01  5.000000000000E-01  3.920460000000E+00

 T = ATOM BELONGING TO THE ASYMMETRIC UNIT

 ****    4 SYMMOPS - TRANSLATORS IN FRACTIONAL UNITS
 **** MATRICES AND TRANSLATORS IN THE CRYSTALLOGRAPHIC REFERENCE FRAME
   V INV                    ROTATION MATRICES                   TRANSLATORS
   1   1  1.00  0.00  0.00  0.00  1.00  0.00  0.00  0.00  1.00  0.00  0.00  0.00
   2   2 -1.00  0.00  0.00  0.00 -1.00  0.00  0.00  0.00  1.00  0.00  0.00  0.00
   3   3 -1.00  0.00  0.00  0.00  1.00  0.00  0.00  0.00  1.00  0.00  0.00  0.00
   4   4  1.00 -0.00  0.00  0.00 -1.00  0.00  0.00  0.00  1.00  0.00  0.00  0.00

 DIRECT LATTICE VECTORS CARTESIAN COMPONENTS (ANGSTROM)
          X                    Y                    Z
   0.256061891665E+01   0.000000000000E+00   0.000000000000E+00
  -0.221738345859E-15   0.362126200000E+01   0.000000000000E+00
   0.000000000000E+00   0.000000000000E+00   0.500000000000E+03


 CARTESIAN COORDINATES - PRIMITIVE CELL
 *******************************************************************************
 *      ATOM          X(ANGSTROM)         Y(ANGSTROM)         Z(ANGSTROM)
 *******************************************************************************
    1    29 CU    1.920460000000E+00  0.000000000000E+00  1.920460000000E+00
    2    29 CU    6.401589166500E-01  0.000000000000E+00  1.920460000000E+00
    3    29 CU    6.401500000000E-01  1.810631000000E+00  6.401500000000E-01
    4    29 CU   -6.401500000000E-01  1.810631000000E+00  6.401500000000E-01
    5     8 O     6.401500000000E-01  0.000000000000E+00 -1.359850000000E+00
    6     8 O    -6.401500000000E-01  0.000000000000E+00 -1.359850000000E+00
    7     8 O     1.920460000000E+00  1.810631000000E+00  3.920460000000E+00
    8     8 O     6.401589166500E-01  1.810631000000E+00  3.920460000000E+00

 *******************************************************************************
 STARTING BASIS SET HANDLING 
 *******************************************************************************

 Loading internal basis set: STO-3G              

 Please cite in your publication:
 H - Ne: W.J. Hehre, R.F. Stewart and J.A. Pople, J. Chem. Phys. 2657 (1969).   
                                                                                
                                                                                
                    
 Na - Ar: W.J. Hehre, R. Ditchfield, R.F. Stewart, J.A. Pople, J. Chem. Phys.  2
 769 (1970).                                                                    
                                                                                
                    
 K,Ca: W.J. Pietro, B.A. Levy, W.J. Hehre and R.F. Stewart, Inorg. Chem., 1980, 
 19 (8), pp 2225-2229                                                           
                                                                                
                    
 Ga-Kr: J. Am. Chem. Soc. 19, 2225 (1980).                                      
                                                                                
                                                                                
                    
 Sc-Zn, Y-Cd: W.J. Pietro and W.J. Hehre, J. Comp. Chem. 4, 241 (1983).         
                                                                                
                                                                                
                    

 *******************************************************************************
 LOCAL ATOMIC FUNCTIONS BASIS SET
 *******************************************************************************
   ATOM   X(AU)   Y(AU)   Z(AU)  N. TYPE  EXPONENT  S COEF   P COEF   D/F/G COEF
 *******************************************************************************
   1 CU   3.629   0.000   3.629
                                  1 S  
                                         1.802E+03 1.543E-01 0.000E+00 0.000E+00
                                         3.282E+02 5.353E-01 0.000E+00 0.000E+00
                                         8.882E+01 4.446E-01 0.000E+00 0.000E+00
                                  2 S  
                                         1.441E+02-9.997E-02 0.000E+00 0.000E+00
                                         3.349E+01 3.995E-01 0.000E+00 0.000E+00
                                         1.089E+01 7.001E-01 0.000E+00 0.000E+00
                                  3 S  
                                         1.131E+01-2.278E-01 0.000E+00 0.000E+00
                                         3.449E+00 2.175E-01 0.000E+00 0.000E+00
                                         1.331E+00 9.167E-01 0.000E+00 0.000E+00
                                  4 S  
                                         6.309E-01-3.088E-01 0.000E+00 0.000E+00
                                         2.329E-01 1.961E-02 0.000E+00 0.000E+00
                                         1.028E-01 1.131E+00 0.000E+00 0.000E+00
                           5-     7 P  
                                         1.441E+02 0.000E+00 1.559E-01 0.000E+00
                                         3.349E+01 0.000E+00 6.077E-01 0.000E+00
                                         1.089E+01 0.000E+00 3.920E-01 0.000E+00
                           8-    10 P  
                                         1.131E+01 0.000E+00 4.952E-03 0.000E+00
                                         3.449E+00 0.000E+00 5.778E-01 0.000E+00
                                         1.331E+00 0.000E+00 4.846E-01 0.000E+00
                          11-    13 P  
                                         6.309E-01 0.000E+00-1.215E-01 0.000E+00
                                         2.329E-01 0.000E+00 5.715E-01 0.000E+00
                                         1.028E-01 0.000E+00 5.499E-01 0.000E+00
                          14-    18 D  
                                         9.648E+00 0.000E+00 0.000E+00 2.198E-01
                                         2.943E+00 0.000E+00 0.000E+00 6.555E-01
                                         1.135E+00 0.000E+00 0.000E+00 2.866E-01
   2 CU   1.210   0.000   3.629
   3 CU   1.210   3.422   1.210
   4 CU  -1.210   3.422   1.210
   5 O    1.210   0.000  -2.570
                                 73 S  
                                         1.307E+02 1.543E-01 0.000E+00 0.000E+00
                                         2.381E+01 5.353E-01 0.000E+00 0.000E+00
                                         6.444E+00 4.446E-01 0.000E+00 0.000E+00
                                 74 S  
                                         5.033E+00-9.997E-02 0.000E+00 0.000E+00
                                         1.170E+00 3.995E-01 0.000E+00 0.000E+00
                                         3.804E-01 7.001E-01 0.000E+00 0.000E+00
                          75-    77 P  
                                         5.033E+00 0.000E+00 1.559E-01 0.000E+00
                                         1.170E+00 0.000E+00 6.077E-01 0.000E+00
                                         3.804E-01 0.000E+00 3.920E-01 0.000E+00
   6 O   -1.210   0.000  -2.570
   7 O    3.629   3.422   7.409
   8 O    1.210   3.422   7.409

 *******************************************************************************
 FINISHED BASIS SET HANDLING 
 *******************************************************************************

 INFORMATION **** SET_MPP **** PCRYSTAL CALCULATION
 INFORMATION **** READM2 **** NEW DEFAULT: FOCK/KS MATRIX MIXING SET TO 30 %
 INFORMATION **** READM2 **** NEW DEFAULT: FULL DIRECT SCF MODE
 INFORMATION **** READM2 **** NEW DEFAULT: COULOMB BIPOLAR BUFFER SET TO 32 Mb
 INFORMATION **** READM2 **** NEW DEFAULT: EXCHANGE BIPOLAR BUFFER SET TO 32 Mb

 *******************************************************************************
 * ATOMS TRANSFORMED INTO GHOSTS :   2
   3( 29)   4( 29)
 SYMMETRY MAY BE BROKEN

 *******************************************************************************
 NEW DEFAULT: DFT INTEGRATION GRID INCREASED TO XLGRID
 NEW DEFAULT: DIIS ACCELERATOR ACTIVE
 USE KEYWORD NODIIS TO TURN IT OFF
 *******************************************************************************

 INFORMATION **** TOLINTEG **** COULOMB AND EXCHANGE SERIES TOLERANCES MODIFIED
 INFORMATION **** MAXCYCLE **** MAX NUMBER OF SCF CYCLES SET TO          20

 GHOST ATOMS - REMOVAL OF NUCLEAR CHARGE AND ELECTRONS
 TOTAL NUCLEAR CHARGE        9.000000E+01
 TOTAL ELECTRONIC CHARGE     9.000000E+01
 *******************************************************************************
 N. OF ATOMS PER CELL         8  COULOMB OVERLAP TOL         (T1) 10**   -5
 NUMBER OF SHELLS            44  COULOMB PENETRATION TOL     (T2) 10**   -5
 NUMBER OF AO                92  EXCHANGE OVERLAP TOL        (T3) 10**   -5
 N. OF ELECTRONS PER CELL    90  EXCHANGE PSEUDO OVP (F(G))  (T4) 10**   -5
 CORE ELECTRONS PER CELL     44  EXCHANGE PSEUDO OVP (P(G))  (T5) 10**  -10
 N. OF SYMMETRY OPERATORS     4  POLE ORDER IN MONO ZONE                  4
 *******************************************************************************
 TYPE OF CALCULATION :  RESTRICTED CLOSED SHELL
 KOHN-SHAM HAMILTONIAN

 (EXCHANGE)[CORRELATION] FUNCTIONAL:(BECKE 88)[LEE-YANG-PARR]

 NON-LOCAL WEIGHTING FACTOR (EXCHANGE) =           0.9000
 NON-LOCAL WEIGHTING FACTOR [CORRELATION] =        0.8100

 HYBRID EXCHANGE - PERCENTAGE OF FOCK EXCHANGE    20.0000

 CAPPA:IS1  6;IS2  6;IS3  1; K PTS MONK NET  16; SYMMOPS:K SPACE   8;G SPACE   4

 *******************************************************************************
 MAX NUMBER OF SCF CYCLES      20  CONVERGENCE ON DELTAP        10**-16
 WEIGHT OF F(I) IN F(I+1)      30% CONVERGENCE ON ENERGY        10**- 6
 SHRINK. FACT.(MONKH.)    6  6  1  NUMBER OF K POINTS IN THE IBZ     16
 SHRINKING FACTOR(GILAT NET)   12  NUMBER OF K POINTS(GILAT NET)     49
 *******************************************************************************
 *** K POINTS COORDINATES (OBLIQUE COORDINATES IN UNITS OF IS =  6)
   1-R(  0  0  0)   2-C(  1  0  0)   3-C(  2  0  0)   4-R(  3  0  0)
   5-C(  0  1  0)   6-C(  1  1  0)   7-C(  2  1  0)   8-C(  3  1  0)
   9-C(  0  2  0)  10-C(  1  2  0)  11-C(  2  2  0)  12-C(  3  2  0)
  13-R(  0  3  0)  14-C(  1  3  0)  15-C(  2  3  0)  16-R(  3  3  0)

 DIRECT LATTICE VECTORS COMPON. (A.U.)     RECIP. LATTICE VECTORS COMPON. (A.U.) 
        X            Y            Z              X            Y            Z
    4.8388685    0.0000000    0.0000000      1.2984823    0.0000000    0.0000000
   -0.0000000    6.8431934    0.0000000      0.0000000    0.9181657    0.0000000
    0.0000000    0.0000000  944.8630670      0.0000000    0.0000000    0.0066498

 DISK SPACE FOR EIGENVECTORS (FTN 10)      236992 REALS

 SYMMETRY ADAPTION OF THE BLOCH FUNCTIONS ENABLED
 TTTTTTTTTTTTTTTTTTTTTTTTTTTTTT gordsh1     TELAPSE        0.01 TCPU        0.01

 MATRIX SIZE: P(G)   77604, F(G)   17608, P(G) IRR   12337, F(G) IRR    5951
 MAX G-VECTOR INDEX FOR 1- AND 2-ELECTRON INTEGRALS  65

 TTTTTTTTTTTTTTTTTTTTTTTTTTTTTT INPUT       TELAPSE        0.01 TCPU        0.01

 NEIGHBORS OF THE NON-EQUIVALENT ATOMS

 N = NUMBER OF NEIGHBORS AT DISTANCE R
    ATOM  N     R/ANG      R/AU   NEIGHBORS (ATOM LABELS AND CELL INDICES)
   1 CU   1     1.2803     2.4194    2 CU   0 0 0
   1 CU   1     1.2803     2.4195    2 CU   1 0 0
   1 CU   2     2.2176     4.1906    4 XX   1-1 0    4 XX   1 0 0
   1 CU   2     2.5606     4.8389    1 CU  -1 0 0    1 CU   1 0 0
   1 CU   2     2.5606     4.8389    3 XX   1 0 0    3 XX   1-1 0
   1 CU   2     2.5606     4.8389    3 XX   0 0 0    3 XX   0-1 0

   3 XX   1     1.2803     2.4194    4 XX   0 0 0
   3 XX   1     1.2803     2.4195    4 XX   1 0 0
   3 XX   2     2.2176     4.1906    2 CU   0 0 0    2 CU   0 1 0
   3 XX   2     2.5606     4.8389    1 CU  -1 0 0    1 CU  -1 1 0
   3 XX   2     2.5606     4.8389    3 XX  -1 0 0    3 XX   1 0 0
   3 XX   2     2.5606     4.8389    1 CU   0 0 0    1 CU   0 1 0

   5 O    1     1.2803     2.4194    6 O    0 0 0
   5 O    1     1.2803     2.4195    6 O    1 0 0
   5 O    2     2.5606     4.8389    5 O   -1 0 0    5 O    1 0 0
   5 O    2     2.6978     5.0982    3 XX   0 0 0    3 XX   0-1 0
   5 O    2     2.9862     5.6432    4 XX   0 0 0    4 XX   0-1 0
   5 O    2     2.9862     5.6432    4 XX   1 0 0    4 XX   1-1 0

   7 O    1     1.2803     2.4194    8 O    0 0 0
   7 O    1     1.2803     2.4195    8 O    1 0 0
   7 O    2     2.5606     4.8389    7 O   -1 0 0    7 O    1 0 0
   7 O    2     2.6978     5.0982    1 CU   0 0 0    1 CU   0 1 0
   7 O    2     2.9862     5.6432    2 CU   0 0 0    2 CU   0 1 0
   7 O    2     2.9862     5.6432    2 CU   1 0 0    2 CU   1 1 0


 SYMMETRY ALLOWED INTERNAL DEGREE(S) OF FREEDOM:   7
 TTTTTTTTTTTTTTTTTTTTTTTTTTTTTT SYMM        TELAPSE        0.01 TCPU        0.01
 TTTTTTTTTTTTTTTTTTTTTTTTTTTTTT INT_SCREEN  TELAPSE        0.01 TCPU        0.01
 INFORMATION **** EXCBUF **** EXCH. BIPO BUFFER: WORDS USED =      370314

 DFT PARAMETERS

     ATOM       ELECTRONS   NET CHARGE   R(ANGSTROM)
   1  29  CU     29.0000      0.0000     1.28000000
   3   0  XX      0.0000      0.0000     0.50000000
   5   8  O       8.0000      0.0000     0.74000000

 SIZE OF GRID=     118934
 TTTTTTTTTTTTTTTTTTTTTTTTTTTTTT MAKE_GRID2  TELAPSE        0.82 TCPU        0.82
 BECKE WEIGHT FUNCTION
 RADSAFE =     2.00
 TOLERANCES - DENSITY:10**- 6; POTENTIAL:10**- 9; GRID WGT:10**-14

 RADIAL INTEGRATION  - INTERVALS (POINTS,UPPER LIMIT):            1( 99,  4.0*R)

 ANGULAR INTEGRATION - INTERVALS (ACCURACY LEVEL [N. POINTS] UPPER LIMIT):
  1(  6[ 146]   0.2)  2( 11[ 302]   0.5)  3( 14[ 590]   0.9)  4( 18[1454]   3.5)
  5( 14[ 590]9999.0)

 GHOST ATOMS - REMOVAL OF NUCLEAR CHARGE AND ELECTRONS
 TOTAL NUCLEAR CHARGE        9.000000E+01
 TOTAL ELECTRONIC CHARGE     9.000000E+01
 TTTTTTTTTTTTTTTTTTTTTTTTTTTTTT INT_CALC    TELAPSE        0.82 TCPU        0.82
 EEEEEEEEEE INT_CALC TERMINATION  DATE 15 02 2022 TIME 17:47:40.0

 *******************************************************************************
 Adsorption tests                                                                
 CRYSTAL - SCF - TYPE OF CALCULATION :  RESTRICTED CLOSED SHELL
 *******************************************************************************

 CAPPA:IS1  6;IS2  6;IS3  1; K PTS MONK NET  16; SYMMOPS:K SPACE   8;G SPACE   4

 TTTTTTTTTTTTTTTTTTTTTTTTTTTTTT SDIK        TELAPSE        0.84 TCPU        0.84

 AAAAAAAAAAAAAAAAAAAAAAAAAAAAAAAAAAAAAAAAAAAAAAAAAAAAAAAAAAAAAAAAAAAAAAAAAAAAAAA
         ATOMIC WAVEFUNCTION(S)


 NUCLEAR CHARGE 29.0  SYMMETRY SPECIES            S    P    D
 N. ELECTRONS   29.0  NUMBER OF PRIMITIVE GTOS   12    9    3
                      NUMBER OF CONTRACTED GTOS   4    3    1
                      NUMBER OF CLOSED SHELLS     4    2    0
                      OPEN SHELL OCCUPATION       0    0    9

  ZNUC SCFIT  TOTAL HF ENERGY   KINETIC ENERGY   VIRIAL THEOREM ACCURACY
  29.0   5   -1.619844227E+03  1.626147454E+03 -1.996123828E+00  5.2E-07

 NUCLEAR CHARGE  8.0  SYMMETRY SPECIES            S    P
 N. ELECTRONS    8.0  NUMBER OF PRIMITIVE GTOS    6    3
                      NUMBER OF CONTRACTED GTOS   2    1
                      NUMBER OF CLOSED SHELLS     2    0
                      OPEN SHELL OCCUPATION       0    4

  ZNUC SCFIT  TOTAL HF ENERGY   KINETIC ENERGY   VIRIAL THEOREM ACCURACY
   8.0   1   -7.380415023E+01  7.344495887E+01 -2.004890620E+00  0.0E+00

 AAAAAAAAAAAAAAAAAAAAAAAAAAAAAAAAAAAAAAAAAAAAAAAAAAAAAAAAAAAAAAAAAAAAAAAAAAAAAAA

 CHARGE NORMALIZATION FACTOR   1.00000000
 TOTAL ATOMIC CHARGES:
  29.0000000  29.0000000   0.0000000   0.0000000   8.0000000   8.0000000
   8.0000000   8.0000000
 TTTTTTTTTTTTTTTTTTTTTTTTTTTTTT MOQGAD      TELAPSE        0.88 TCPU        0.87
 TTTTTTTTTTTTTTTTTTTTTTTTTTTTTT SHELLXN     TELAPSE       66.93 TCPU       66.42
 TTTTTTTTTTTTTTTTTTTTTTTTTTTTTT MONMO3      TELAPSE       67.10 TCPU       66.59
 NUMERICALLY INTEGRATED DENSITY     90.0000083539
 TTTTTTTTTTTTTTTTTTTTTTTTTTTTTT NUMDFT      TELAPSE       69.54 TCPU       69.03
 CYC   0 ETOT(AU) -3.540892211582E+03 DETOT -3.54E+03 tst  0.00E+00 PX  1.00E+00
 TTTTTTTTTTTTTTTTTTTTTTTTTTTTTT DIIS        TELAPSE       69.54 TCPU       69.03
 TTTTTTTTTTTTTTTTTTTTTTTTTTTTTT FDIK        TELAPSE       69.59 TCPU       69.08
 POSSIBLY CONDUCTING STATE - EFERMI(AU)  3.5612956E-01 (RES. CHARGE  7.11E-15;IT. 12)
 TTTTTTTTTTTTTTTTTTTTTTTTTTTTTT PDIG        TELAPSE       69.60 TCPU       69.09
 CHARGE NORMALIZATION FACTOR   1.00000000
 TOTAL ATOMIC CHARGES:
  24.7563364  24.7563364   2.0435937   2.0435937   9.0796246   9.0796246
   9.1204452   9.1204452
 TTTTTTTTTTTTTTTTTTTTTTTTTTTTTT MOQGAD      TELAPSE       69.62 TCPU       69.12
 TTTTTTTTTTTTTTTTTTTTTTTTTTTTTT SHELLXN     TELAPSE      136.32 TCPU      135.76
 TTTTTTTTTTTTTTTTTTTTTTTTTTTTTT MONMO3      TELAPSE      136.49 TCPU      135.93
 NUMERICALLY INTEGRATED DENSITY     89.9995210574
 TTTTTTTTTTTTTTTTTTTTTTTTTTTTTT NUMDFT      TELAPSE      143.11 TCPU      142.55
 CYC   1 ETOT(AU) -3.437669199093E+03 DETOT  1.03E+02 tst  0.00E+00 PX  1.00E+00
 TTTTTTTTTTTTTTTTTTTTTTTTTTTTTT DIIS        TELAPSE      143.11 TCPU      142.55
 DIIS TEST: 0.21029E+03 AT SCF   CYCLE   1 - MIX   30 %
 TTTTTTTTTTTTTTTTTTTTTTTTTTTTTT FDIK        TELAPSE      143.13 TCPU      142.57
 POSSIBLY CONDUCTING STATE - EFERMI(AU) -2.0204851E+00 (RES. CHARGE  2.71E-12;IT. 10)
 TTTTTTTTTTTTTTTTTTTTTTTTTTTTTT PDIG        TELAPSE      143.15 TCPU      142.58
 CHARGE NORMALIZATION FACTOR   1.00000000
 TOTAL ATOMIC CHARGES:
  35.6492890  35.6492890   0.4955912   0.4955912   2.0062156   2.0062156
   6.8489043   6.8489043
 TTTTTTTTTTTTTTTTTTTTTTTTTTTTTT MOQGAD      TELAPSE      143.17 TCPU      142.60
 TTTTTTTTTTTTTTTTTTTTTTTTTTTTTT SHELLXN     TELAPSE      209.76 TCPU      209.14
 TTTTTTTTTTTTTTTTTTTTTTTTTTTTTT MONMO3      TELAPSE      209.94 TCPU      209.31
 NUMERICALLY INTEGRATED DENSITY     89.9972439967
 TTTTTTTTTTTTTTTTTTTTTTTTTTTTTT NUMDFT      TELAPSE      216.51 TCPU      215.88
 CYC   2 ETOT(AU) -2.885843589890E+03 DETOT  5.52E+02 tst  6.28E+01 PX  3.13E+02
 TTTTTTTTTTTTTTTTTTTTTTTTTTTTTT DIIS        TELAPSE      216.51 TCPU      215.88
 DIIS TEST: 0.74730E+02 AT SCF   CYCLE   2 - DIIS ACTIVE - HISTORY:     2 CYCLES
 TTTTTTTTTTTTTTTTTTTTTTTTTTTTTT FDIK        TELAPSE      216.53 TCPU      215.90
 POSSIBLY CONDUCTING STATE - EFERMI(AU)  6.8589315E+00 (RES. CHARGE  5.58E-11;IT. 10)
 TTTTTTTTTTTTTTTTTTTTTTTTTTTTTT PDIG        TELAPSE      216.54 TCPU      215.91
 CHARGE NORMALIZATION FACTOR   1.00000000
 TOTAL ATOMIC CHARGES:
  23.6985668  23.6985668   8.3235615   8.3235615  10.0010497  10.0010497
   2.9768220   2.9768220
 TTTTTTTTTTTTTTTTTTTTTTTTTTTTTT MOQGAD      TELAPSE      216.57 TCPU      215.94
 TTTTTTTTTTTTTTTTTTTTTTTTTTTTTT SHELLXN     TELAPSE      283.37 TCPU      282.63
 TTTTTTTTTTTTTTTTTTTTTTTTTTTTTT MONMO3      TELAPSE      283.54 TCPU      282.80
 NUMERICALLY INTEGRATED DENSITY     89.9995451345
 TTTTTTTTTTTTTTTTTTTTTTTTTTTTTT NUMDFT      TELAPSE      290.11 TCPU      289.37
 CYC   3 ETOT(AU) -3.195399447748E+03 DETOT -3.10E+02 tst  5.97E+02 PX  3.08E+02
 TTTTTTTTTTTTTTTTTTTTTTTTTTTTTT DIIS        TELAPSE      290.12 TCPU      289.37
 DIIS TEST: 0.18827E+03 AT SCF   CYCLE   3 - DIIS ACTIVE - HISTORY:     3 CYCLES
 TTTTTTTTTTTTTTTTTTTTTTTTTTTTTT FDIK        TELAPSE      290.14 TCPU      289.39
 POSSIBLY CONDUCTING STATE - EFERMI(AU)  3.3226210E+00 (RES. CHARGE  8.53E-14;IT. 12)
 TTTTTTTTTTTTTTTTTTTTTTTTTTTTTT PDIG        TELAPSE      290.15 TCPU      289.40
 CHARGE NORMALIZATION FACTOR   1.00000000
 TOTAL ATOMIC CHARGES:
  22.0851069  22.0851069   2.8847096   2.8847096  10.0161029  10.0161029
  10.0140806  10.0140806
 TTTTTTTTTTTTTTTTTTTTTTTTTTTTTT MOQGAD      TELAPSE      290.17 TCPU      289.43
 TTTTTTTTTTTTTTTTTTTTTTTTTTTTTT SHELLXN     TELAPSE      357.23 TCPU      356.26
 TTTTTTTTTTTTTTTTTTTTTTTTTTTTTT MONMO3      TELAPSE      357.40 TCPU      356.43
 NUMERICALLY INTEGRATED DENSITY     89.9995033876
 TTTTTTTTTTTTTTTTTTTTTTTTTTTTTT NUMDFT      TELAPSE      363.96 TCPU      362.99
 CYC   4 ETOT(AU) -3.425314633174E+03 DETOT -2.30E+02 tst  4.28E+01 PX  7.08E+00
 TTTTTTTTTTTTTTTTTTTTTTTTTTTTTT DIIS        TELAPSE      363.97 TCPU      363.00
 DIIS TEST: 0.86666E+02 AT SCF   CYCLE   4 - DIIS ACTIVE - HISTORY:     4 CYCLES
 TTTTTTTTTTTTTTTTTTTTTTTTTTTTTT FDIK        TELAPSE      363.98 TCPU      363.02
 POSSIBLY CONDUCTING STATE - EFERMI(AU)  3.0346506E-01 (RES. CHARGE  6.41E-11;IT. 10)
 TTTTTTTTTTTTTTTTTTTTTTTTTTTTTT PDIG        TELAPSE      363.99 TCPU      363.03
 CHARGE NORMALIZATION FACTOR   1.00000000
 TOTAL ATOMIC CHARGES:
  30.5024697  30.5024697   1.5260587   1.5260587  10.0272692  10.0272692
   2.9442024   2.9442024
 TTTTTTTTTTTTTTTTTTTTTTTTTTTTTT MOQGAD      TELAPSE      364.02 TCPU      363.05
 TTTTTTTTTTTTTTTTTTTTTTTTTTTTTT SHELLXN     TELAPSE      430.77 TCPU      429.78
 TTTTTTTTTTTTTTTTTTTTTTTTTTTTTT MONMO3      TELAPSE      430.94 TCPU      429.95
 NUMERICALLY INTEGRATED DENSITY     90.0000557787
 TTTTTTTTTTTTTTTTTTTTTTTTTTTTTT NUMDFT      TELAPSE      437.53 TCPU      436.53
 CYC   5 ETOT(AU) -3.374160762821E+03 DETOT  5.12E+01 tst  8.34E+00 PX  2.62E+01
 TTTTTTTTTTTTTTTTTTTTTTTTTTTTTT DIIS        TELAPSE      437.53 TCPU      436.53
 DIIS TEST: 0.42585E+02 AT SCF   CYCLE   5 - DIIS ACTIVE - HISTORY:     5 CYCLES
 TTTTTTTTTTTTTTTTTTTTTTTTTTTTTT FDIK        TELAPSE      437.55 TCPU      436.55
 POSSIBLY CONDUCTING STATE - EFERMI(AU)  6.0658293E-01 (RES. CHARGE  0.00E+00;IT. 10)
 TTTTTTTTTTTTTTTTTTTTTTTTTTTTTT PDIG        TELAPSE      437.56 TCPU      436.56
 CHARGE NORMALIZATION FACTOR   1.00000000
 TOTAL ATOMIC CHARGES:
  32.0268096  32.0268096   0.9643316   0.9643316   2.0032979   2.0032979
  10.0055609  10.0055609
 TTTTTTTTTTTTTTTTTTTTTTTTTTTTTT MOQGAD      TELAPSE      437.58 TCPU      436.59
 TTTTTTTTTTTTTTTTTTTTTTTTTTTTTT SHELLXN     TELAPSE      504.42 TCPU      503.35
 TTTTTTTTTTTTTTTTTTTTTTTTTTTTTT MONMO3      TELAPSE      504.59 TCPU      503.52
 NUMERICALLY INTEGRATED DENSITY     89.9993152022
 TTTTTTTTTTTTTTTTTTTTTTTTTTTTTT NUMDFT      TELAPSE      511.26 TCPU      510.13
 CYC   6 ETOT(AU) -3.338008851850E+03 DETOT  3.62E+01 tst  1.88E+01 PX  8.98E+01
 TTTTTTTTTTTTTTTTTTTTTTTTTTTTTT DIIS        TELAPSE      511.27 TCPU      510.13
 DIIS TEST: 0.21741E+02 AT SCF   CYCLE   6 - DIIS ACTIVE - HISTORY:     6 CYCLES
 TTTTTTTTTTTTTTTTTTTTTTTTTTTTTT FDIK        TELAPSE      511.29 TCPU      510.15
 POSSIBLY CONDUCTING STATE - EFERMI(AU)  2.3996937E+00 (RES. CHARGE  8.17E-13;IT. 14)
 TTTTTTTTTTTTTTTTTTTTTTTTTTTTTT PDIG        TELAPSE      511.30 TCPU      510.16
 CHARGE NORMALIZATION FACTOR   1.00000000
 TOTAL ATOMIC CHARGES:
  24.8671569  24.8671569   5.9435076   5.9435076  10.0042295  10.0042295
   4.1851060   4.1851060
 TTTTTTTTTTTTTTTTTTTTTTTTTTTTTT MOQGAD      TELAPSE      511.32 TCPU      510.18
 TTTTTTTTTTTTTTTTTTTTTTTTTTTTTT SHELLXN     TELAPSE      578.09 TCPU      576.91
 TTTTTTTTTTTTTTTTTTTTTTTTTTTTTT MONMO3      TELAPSE      578.26 TCPU      577.08
 NUMERICALLY INTEGRATED DENSITY     89.9982872225
 TTTTTTTTTTTTTTTTTTTTTTTTTTTTTT NUMDFT      TELAPSE      584.84 TCPU      583.66
 CYC   7 ETOT(AU) -3.204574914602E+03 DETOT  1.33E+02 tst  5.89E+02 PX  1.83E+02
 TTTTTTTTTTTTTTTTTTTTTTTTTTTTTT DIIS        TELAPSE      584.84 TCPU      583.66
 DIIS TEST: 0.26172E+03 AT SCF   CYCLE   7 - DIIS ACTIVE - HISTORY:     7 CYCLES
 TTTTTTTTTTTTTTTTTTTTTTTTTTTTTT FDIK        TELAPSE      584.86 TCPU      583.68
 POSSIBLY CONDUCTING STATE - EFERMI(AU)  2.2074322E+00 (RES. CHARGE  5.31E-10;IT. 10)
 TTTTTTTTTTTTTTTTTTTTTTTTTTTTTT PDIG        TELAPSE      584.87 TCPU      583.69
 CHARGE NORMALIZATION FACTOR   1.00000000
 TOTAL ATOMIC CHARGES:
  25.6066137  25.6066137   5.5748881   5.5748881  10.0058331  10.0058331
   3.8126651   3.8126651
 TTTTTTTTTTTTTTTTTTTTTTTTTTTTTT MOQGAD      TELAPSE      584.90 TCPU      583.71
 TTTTTTTTTTTTTTTTTTTTTTTTTTTTTT SHELLXN     TELAPSE      651.57 TCPU      650.38
 TTTTTTTTTTTTTTTTTTTTTTTTTTTTTT MONMO3      TELAPSE      651.75 TCPU      650.55
 NUMERICALLY INTEGRATED DENSITY     89.9990773182
 TTTTTTTTTTTTTTTTTTTTTTTTTTTTTT NUMDFT      TELAPSE      658.34 TCPU      657.14
 CYC   8 ETOT(AU) -3.157763789608E+03 DETOT  4.68E+01 tst  9.63E+00 PX  1.35E+02
 TTTTTTTTTTTTTTTTTTTTTTTTTTTTTT DIIS        TELAPSE      658.34 TCPU      657.14
 DIIS TEST: 0.20620E+03 AT SCF   CYCLE   8 - DIIS ACTIVE - HISTORY:     8 CYCLES
 TTTTTTTTTTTTTTTTTTTTTTTTTTTTTT FDIK        TELAPSE      658.36 TCPU      657.16
 POSSIBLY CONDUCTING STATE - EFERMI(AU)  2.3877863E+00 (RES. CHARGE  1.42E-14;IT. 10)
 TTTTTTTTTTTTTTTTTTTTTTTTTTTTTT PDIG        TELAPSE      658.37 TCPU      657.17
 CHARGE NORMALIZATION FACTOR   1.00000000
 TOTAL ATOMIC CHARGES:
  26.9498136  26.9498136   6.0544103   6.0544103  10.0046220  10.0046220
   1.9911540   1.9911540
 TTTTTTTTTTTTTTTTTTTTTTTTTTTTTT MOQGAD      TELAPSE      658.40 TCPU      657.20
 TTTTTTTTTTTTTTTTTTTTTTTTTTTTTT SHELLXN     TELAPSE      725.81 TCPU      724.20
 TTTTTTTTTTTTTTTTTTTTTTTTTTTTTT MONMO3      TELAPSE      725.98 TCPU      724.37
 NUMERICALLY INTEGRATED DENSITY     89.9991086570
 TTTTTTTTTTTTTTTTTTTTTTTTTTTTTT NUMDFT      TELAPSE      732.57 TCPU      730.95
 CYC   9 ETOT(AU) -3.114212174856E+03 DETOT  4.36E+01 tst  1.18E+02 PX  1.22E+02
 TTTTTTTTTTTTTTTTTTTTTTTTTTTTTT DIIS        TELAPSE      732.57 TCPU      730.96
 DIIS TEST: 0.26549E+03 AT SCF   CYCLE   9 - DIIS ACTIVE - HISTORY:     9 CYCLES
 TTTTTTTTTTTTTTTTTTTTTTTTTTTTTT FDIK        TELAPSE      732.59 TCPU      730.98
 POSSIBLY CONDUCTING STATE - EFERMI(AU)  2.9315908E+00 (RES. CHARGE  6.90E-10;IT. 10)
 TTTTTTTTTTTTTTTTTTTTTTTTTTTTTT PDIG        TELAPSE      732.60 TCPU      730.99
 CHARGE NORMALIZATION FACTOR   1.00000000
 TOTAL ATOMIC CHARGES:
  26.4574433  26.4574433   6.3837320   6.3837320  10.0042072  10.0042072
   2.1546175   2.1546175
 TTTTTTTTTTTTTTTTTTTTTTTTTTTTTT MOQGAD      TELAPSE      732.64 TCPU      731.01
 TTTTTTTTTTTTTTTTTTTTTTTTTTTTTT SHELLXN     TELAPSE      799.64 TCPU      797.86
 TTTTTTTTTTTTTTTTTTTTTTTTTTTTTT MONMO3      TELAPSE      799.81 TCPU      798.03
 NUMERICALLY INTEGRATED DENSITY     89.9998217450
 TTTTTTTTTTTTTTTTTTTTTTTTTTTTTT NUMDFT      TELAPSE      806.40 TCPU      804.61
 CYC  10 ETOT(AU) -3.046251752162E+03 DETOT  6.80E+01 tst  1.12E+01 PX  9.65E+01
 TTTTTTTTTTTTTTTTTTTTTTTTTTTTTT DIIS        TELAPSE      806.40 TCPU      804.62
 DIIS TEST: 0.23807E+03 AT SCF   CYCLE  10 - DIIS ACTIVE - HISTORY:    10 CYCLES
 TTTTTTTTTTTTTTTTTTTTTTTTTTTTTT FDIK        TELAPSE      806.42 TCPU      804.63
 POSSIBLY CONDUCTING STATE - EFERMI(AU)  3.0095636E+00 (RES. CHARGE  1.35E-13;IT. 12)
 TTTTTTTTTTTTTTTTTTTTTTTTTTTTTT PDIG        TELAPSE      806.44 TCPU      804.65
 CHARGE NORMALIZATION FACTOR   1.00000000
 TOTAL ATOMIC CHARGES:
  26.4216500  26.4216500   6.3842749   6.3842749  10.0043599  10.0043599
   2.1897152   2.1897152
 TTTTTTTTTTTTTTTTTTTTTTTTTTTTTT MOQGAD      TELAPSE      806.46 TCPU      804.67
 TTTTTTTTTTTTTTTTTTTTTTTTTTTTTT SHELLXN     TELAPSE      873.42 TCPU      871.48
 TTTTTTTTTTTTTTTTTTTTTTTTTTTTTT MONMO3      TELAPSE      873.59 TCPU      871.65
 NUMERICALLY INTEGRATED DENSITY     89.9998152667
 TTTTTTTTTTTTTTTTTTTTTTTTTTTTTT NUMDFT      TELAPSE      880.19 TCPU      878.23
 CYC  11 ETOT(AU) -3.046939591358E+03 DETOT -6.88E-01 tst  1.55E-02 PX  6.54E-01
 TTTTTTTTTTTTTTTTTTTTTTTTTTTTTT DIIS        TELAPSE      880.20 TCPU      878.24
 DIIS TEST: 0.24439E+03 AT SCF   CYCLE  11 - DIIS ACTIVE - HISTORY:    11 CYCLES
 TTTTTTTTTTTTTTTTTTTTTTTTTTTTTT FDIK        TELAPSE      880.22 TCPU      878.26
 POSSIBLY CONDUCTING STATE - EFERMI(AU)  2.9758279E+00 (RES. CHARGE  5.21E-10;IT. 10)
 TTTTTTTTTTTTTTTTTTTTTTTTTTTTTT PDIG        TELAPSE      880.23 TCPU      878.27
 CHARGE NORMALIZATION FACTOR   1.00000000
 TOTAL ATOMIC CHARGES:
  26.4590137  26.4590137   6.3687542   6.3687542  10.0044367  10.0044367
   2.1677954   2.1677954
 TTTTTTTTTTTTTTTTTTTTTTTTTTTTTT MOQGAD      TELAPSE      880.25 TCPU      878.29
 TTTTTTTTTTTTTTTTTTTTTTTTTTTTTT SHELLXN     TELAPSE      946.97 TCPU      944.97
 TTTTTTTTTTTTTTTTTTTTTTTTTTTTTT MONMO3      TELAPSE      947.14 TCPU      945.14
 NUMERICALLY INTEGRATED DENSITY     89.9998159132
 TTTTTTTTTTTTTTTTTTTTTTTTTTTTTT NUMDFT      TELAPSE      953.76 TCPU      951.72
 CYC  12 ETOT(AU) -3.047106358084E+03 DETOT -1.67E-01 tst  5.25E-04 PX  8.90E-02
 TTTTTTTTTTTTTTTTTTTTTTTTTTTTTT DIIS        TELAPSE      953.76 TCPU      951.72
 DIIS TEST: 0.23213E+03 AT SCF   CYCLE  12 - DIIS ACTIVE - HISTORY:    12 CYCLES
 TTTTTTTTTTTTTTTTTTTTTTTTTTTTTT FDIK        TELAPSE      953.78 TCPU      951.74
 POSSIBLY CONDUCTING STATE - EFERMI(AU)  2.9476699E+00 (RES. CHARGE  8.85E-11;IT. 10)
 TTTTTTTTTTTTTTTTTTTTTTTTTTTTTT PDIG        TELAPSE      953.79 TCPU      951.75
 CHARGE NORMALIZATION FACTOR   1.00000000
 TOTAL ATOMIC CHARGES:
  26.0317097  26.0317097   6.3253922   6.3253922  10.0045696  10.0045696
   2.6383285   2.6383285
 TTTTTTTTTTTTTTTTTTTTTTTTTTTTTT MOQGAD      TELAPSE      953.82 TCPU      951.78
 TTTTTTTTTTTTTTTTTTTTTTTTTTTTTT SHELLXN     TELAPSE     1020.66 TCPU     1018.51
 TTTTTTTTTTTTTTTTTTTTTTTTTTTTTT MONMO3      TELAPSE     1020.83 TCPU     1018.68
 NUMERICALLY INTEGRATED DENSITY     89.9998122188
 TTTTTTTTTTTTTTTTTTTTTTTTTTTTTT NUMDFT      TELAPSE     1027.40 TCPU     1025.25
 CYC  13 ETOT(AU) -3.063797265681E+03 DETOT -1.67E+01 tst  9.97E-03 PX  5.71E-01
 TTTTTTTTTTTTTTTTTTTTTTTTTTTTTT DIIS        TELAPSE     1027.41 TCPU     1025.25
 DIIS TEST: 0.22255E+03 AT SCF   CYCLE  13 - DIIS ACTIVE - HISTORY:    13 CYCLES
 TTTTTTTTTTTTTTTTTTTTTTTTTTTTTT FDIK        TELAPSE     1027.43 TCPU     1025.27
 POSSIBLY CONDUCTING STATE - EFERMI(AU)  2.9175902E+00 (RES. CHARGE  5.58E-12;IT. 12)
 TTTTTTTTTTTTTTTTTTTTTTTTTTTTTT PDIG        TELAPSE     1027.44 TCPU     1025.28
 CHARGE NORMALIZATION FACTOR   1.00000000
 TOTAL ATOMIC CHARGES:
  25.9570757  25.9570757   6.3064767   6.3064767  10.0045928  10.0045928
   2.7318548   2.7318548
 TTTTTTTTTTTTTTTTTTTTTTTTTTTTTT MOQGAD      TELAPSE     1027.46 TCPU     1025.31
 TTTTTTTTTTTTTTTTTTTTTTTTTTTTTT SHELLXN     TELAPSE     1094.36 TCPU     1092.09
 TTTTTTTTTTTTTTTTTTTTTTTTTTTTTT MONMO3      TELAPSE     1094.53 TCPU     1092.26
 NUMERICALLY INTEGRATED DENSITY     89.9998114854
 TTTTTTTTTTTTTTTTTTTTTTTTTTTTTT NUMDFT      TELAPSE     1101.13 TCPU     1098.85
 CYC  14 ETOT(AU) -3.067329830455E+03 DETOT -3.53E+00 tst  3.07E-04 PX  6.52E-02
 TTTTTTTTTTTTTTTTTTTTTTTTTTTTTT DIIS        TELAPSE     1101.14 TCPU     1098.86
 DIIS TEST: 0.22092E+03 AT SCF   CYCLE  14 - DIIS ACTIVE - HISTORY:    14 CYCLES
 TTTTTTTTTTTTTTTTTTTTTTTTTTTTTT FDIK        TELAPSE     1101.16 TCPU     1098.88
 POSSIBLY CONDUCTING STATE - EFERMI(AU)  2.9101755E+00 (RES. CHARGE  1.67E-11;IT. 10)
 TTTTTTTTTTTTTTTTTTTTTTTTTTTTTT PDIG        TELAPSE     1101.17 TCPU     1098.89
 CHARGE NORMALIZATION FACTOR   1.00000000
 TOTAL ATOMIC CHARGES:
  25.9433655  25.9433655   6.3011799   6.3011799  10.0045993  10.0045993
   2.7508554   2.7508554
 TTTTTTTTTTTTTTTTTTTTTTTTTTTTTT MOQGAD      TELAPSE     1101.19 TCPU     1098.92
 TTTTTTTTTTTTTTTTTTTTTTTTTTTTTT SHELLXN     TELAPSE     1167.96 TCPU     1165.64
 TTTTTTTTTTTTTTTTTTTTTTTTTTTTTT MONMO3      TELAPSE     1168.13 TCPU     1165.82
 NUMERICALLY INTEGRATED DENSITY     89.9998112947
 TTTTTTTTTTTTTTTTTTTTTTTTTTTTTT NUMDFT      TELAPSE     1174.71 TCPU     1172.39
 CYC  15 ETOT(AU) -3.068104654927E+03 DETOT -7.75E-01 tst  1.33E-05 PX  1.32E-02
 TTTTTTTTTTTTTTTTTTTTTTTTTTTTTT DIIS        TELAPSE     1174.72 TCPU     1172.40
 DIIS TEST: 0.22001E+03 AT SCF   CYCLE  15 - DIIS ACTIVE - HISTORY:    15 CYCLES
 TTTTTTTTTTTTTTTTTTTTTTTTTTTTTT FDIK        TELAPSE     1174.74 TCPU     1172.42
 POSSIBLY CONDUCTING STATE - EFERMI(AU)  2.9011775E+00 (RES. CHARGE  2.56E-13;IT. 12)
 TTTTTTTTTTTTTTTTTTTTTTTTTTTTTT PDIG        TELAPSE     1174.75 TCPU     1172.43
 CHARGE NORMALIZATION FACTOR   1.00000000
 TOTAL ATOMIC CHARGES:
  25.9981757  25.9981757   6.3015419   6.3015419  10.0045935  10.0045935
   2.6956889   2.6956889
 TTTTTTTTTTTTTTTTTTTTTTTTTTTTTT MOQGAD      TELAPSE     1174.77 TCPU     1172.45
 TTTTTTTTTTTTTTTTTTTTTTTTTTTTTT SHELLXN     TELAPSE     1241.64 TCPU     1239.22
 TTTTTTTTTTTTTTTTTTTTTTTTTTTTTT MONMO3      TELAPSE     1241.81 TCPU     1239.39
 NUMERICALLY INTEGRATED DENSITY     89.9998113391
 TTTTTTTTTTTTTTTTTTTTTTTTTTTTTT NUMDFT      TELAPSE     1248.39 TCPU     1245.97
 CYC  16 ETOT(AU) -3.066533992646E+03 DETOT  1.57E+00 tst  1.32E-04 PX  6.42E-02
 TTTTTTTTTTTTTTTTTTTTTTTTTTTTTT DIIS        TELAPSE     1248.40 TCPU     1245.97
 DIIS TEST: 0.22151E+03 AT SCF   CYCLE  16 - DIIS ACTIVE - HISTORY:    16 CYCLES
 TTTTTTTTTTTTTTTTTTTTTTTTTTTTTT FDIK        TELAPSE     1248.42 TCPU     1245.99
 POSSIBLY CONDUCTING STATE - EFERMI(AU)  2.6978289E+00 (RES. CHARGE  1.18E-11;IT. 12)
 TTTTTTTTTTTTTTTTTTTTTTTTTTTTTT PDIG        TELAPSE     1248.43 TCPU     1246.00
 CHARGE NORMALIZATION FACTOR   1.00000000
 TOTAL ATOMIC CHARGES:
  25.7582542  25.7582542   6.1104372   6.1104372  10.0049020  10.0049020
   3.1264066   3.1264066
 TTTTTTTTTTTTTTTTTTTTTTTTTTTTTT MOQGAD      TELAPSE     1248.45 TCPU     1246.03
 TTTTTTTTTTTTTTTTTTTTTTTTTTTTTT SHELLXN     TELAPSE     1315.31 TCPU     1312.77
 TTTTTTTTTTTTTTTTTTTTTTTTTTTTTT MONMO3      TELAPSE     1315.48 TCPU     1312.94
 NUMERICALLY INTEGRATED DENSITY     89.9998047078
 TTTTTTTTTTTTTTTTTTTTTTTTTTTTTT NUMDFT      TELAPSE     1322.05 TCPU     1319.52
 CYC  17 ETOT(AU) -3.085818860375E+03 DETOT -1.93E+01 tst  2.25E-02 PX  6.59E-01
 TTTTTTTTTTTTTTTTTTTTTTTTTTTTTT DIIS        TELAPSE     1322.06 TCPU     1319.53
 DIIS TEST: 0.26300E+03 AT SCF   CYCLE  17 - DIIS ACTIVE - HISTORY:    17 CYCLES
 TTTTTTTTTTTTTTTTTTTTTTTTTTTTTT FDIK        TELAPSE     1322.08 TCPU     1319.54
 POSSIBLY CONDUCTING STATE - EFERMI(AU)  2.6311851E+00 (RES. CHARGE  2.98E-13;IT. 12)
 TTTTTTTTTTTTTTTTTTTTTTTTTTTTTT PDIG        TELAPSE     1322.09 TCPU     1319.55
 CHARGE NORMALIZATION FACTOR   1.00000000
 TOTAL ATOMIC CHARGES:
  25.8508247  25.8508247   6.0013333   6.0013333  10.0049998  10.0049998
   3.1428422   3.1428422
 TTTTTTTTTTTTTTTTTTTTTTTTTTTTTT MOQGAD      TELAPSE     1322.11 TCPU     1319.58
 TTTTTTTTTTTTTTTTTTTTTTTTTTTTTT SHELLXN     TELAPSE     1388.89 TCPU     1386.32
 TTTTTTTTTTTTTTTTTTTTTTTTTTTTTT MONMO3      TELAPSE     1389.06 TCPU     1386.49
 NUMERICALLY INTEGRATED DENSITY     89.9998028717
 TTTTTTTTTTTTTTTTTTTTTTTTTTTTTT NUMDFT      TELAPSE     1395.65 TCPU     1393.07
 CYC  18 ETOT(AU) -3.089506200326E+03 DETOT -3.69E+00 tst  3.11E-03 PX  3.42E-01
 TTTTTTTTTTTTTTTTTTTTTTTTTTTTTT DIIS        TELAPSE     1395.65 TCPU     1393.07
 DIIS TEST: 0.26519E+03 AT SCF   CYCLE  18 - DIIS ACTIVE - HISTORY:    18 CYCLES
 TTTTTTTTTTTTTTTTTTTTTTTTTTTTTT FDIK        TELAPSE     1395.67 TCPU     1393.09
 POSSIBLY CONDUCTING STATE - EFERMI(AU)  2.7816855E+00 (RES. CHARGE  5.41E-10;IT. 12)
 TTTTTTTTTTTTTTTTTTTTTTTTTTTTTT PDIG        TELAPSE     1395.68 TCPU     1393.10
 CHARGE NORMALIZATION FACTOR   1.00000000
 TOTAL ATOMIC CHARGES:
  25.6670540  25.6670540   6.2218059   6.2218059  10.0047153  10.0047153
   3.1064249   3.1064249
 TTTTTTTTTTTTTTTTTTTTTTTTTTTTTT MOQGAD      TELAPSE     1395.71 TCPU     1393.13
 TTTTTTTTTTTTTTTTTTTTTTTTTTTTTT SHELLXN     TELAPSE     1462.64 TCPU     1459.86
 TTTTTTTTTTTTTTTTTTTTTTTTTTTTTT MONMO3      TELAPSE     1462.81 TCPU     1460.03
 NUMERICALLY INTEGRATED DENSITY     89.9998071111
 TTTTTTTTTTTTTTTTTTTTTTTTTTTTTT NUMDFT      TELAPSE     1469.38 TCPU     1466.61
 CYC  19 ETOT(AU) -3.081857781858E+03 DETOT  7.65E+00 tst  1.86E-02 PX  7.89E-01
 TTTTTTTTTTTTTTTTTTTTTTTTTTTTTT DIIS        TELAPSE     1469.39 TCPU     1466.61
 DIIS TEST: 0.27135E+03 AT SCF   CYCLE  19 - DIIS ACTIVE - HISTORY:    19 CYCLES
 TTTTTTTTTTTTTTTTTTTTTTTTTTTTTT FDIK        TELAPSE     1469.41 TCPU     1466.63
 POSSIBLY CONDUCTING STATE - EFERMI(AU)  2.9355660E+00 (RES. CHARGE  4.98E-11;IT. 10)
 TTTTTTTTTTTTTTTTTTTTTTTTTTTTTT PDIG        TELAPSE     1469.42 TCPU     1466.64
 CHARGE NORMALIZATION FACTOR   1.00000000
 TOTAL ATOMIC CHARGES:
  25.8315346  25.8315346   6.3658669   6.3658669  10.0044650  10.0044650
   2.7981335   2.7981335
 TTTTTTTTTTTTTTTTTTTTTTTTTTTTTT MOQGAD      TELAPSE     1469.44 TCPU     1466.67
 TTTTTTTTTTTTTTTTTTTTTTTTTTTTTT SHELLXN     TELAPSE     1536.42 TCPU     1533.47

 ::: DIPOLE MOMENT ALONG NON PERIODIC DIRECTIONS:
 ::: A.U.     (Z) -1.01664E+02
 ::: DEBYE         2.58404E+02

 +++ ENERGIES IN A.U. +++
 ::: EXT EL-POLE                                  -8.4300266709203E+03
 ::: EXT EL-SPHEROPOLE                             0.0000000000000E+00
 ::: BIELET ZONE E-E                               7.0606813177158E+03
 ::: TOTAL E-E                                    -1.3693453532045E+03
 ::: TOTAL E-N + N-E                              -2.0663499081554E+03
 ::: TOTAL N-N                                    -2.9844123048490E+03
 ::: KINETIC ENERGY                                3.4814373129296E+03
 ::: PSEUDO TOTAL   ENERGY                        -2.9386702532793E+03
 ::: VIRIAL COEFFICIENT                            1.0845417392237E+00
 TTTTTTTTTTTTTTTTTTTTTTTTTTTTTT MONMO3      TELAPSE     1536.60 TCPU     1533.64
 NUMERICALLY INTEGRATED DENSITY     89.9998198005
 TTTTTTTTTTTTTTTTTTTTTTTTTTTTTT NUMDFT      TELAPSE     1543.16 TCPU     1540.20
 CYC  20 ETOT(AU) -3.068921363682E+03 DETOT  1.29E+01 tst  5.93E-01 PX  7.89E-01

 == SCF ENDED - TOO MANY CYCLES            E(AU) -3.0689213636818E+03 CYCLES  20


 ENERGY EXPRESSION=HARTREE+FOCK EXCH*0.20000+(BECKE      EXCH)*0.80000+LYP        CORR


 TOTAL ENERGY(DFT)(AU)( 20) -3.0689213636818E+03 DE 1.3E+01 tester 5.9E-01
 TTTTTTTTTTTTTTTTTTTTTTTTTTTTTT EDFT        TELAPSE     1543.16 TCPU     1540.20
 EIGENVECTORS IN FORTRAN UNIT  8
 TTTTTTTTTTTTTTTTTTTTTTTTTTTTTT END         TELAPSE     1543.18 TCPU     1540.22
 EEEEEEEEEE TERMINATION  DATE 15 02 2022 TIME 18:13:22.3
Tue 15 Feb 2022 18:13:22 GMT
Contents of temporary directory:
total 14760
-rw-r--r--  1 brunocamino  admin   952320 15 Feb 18:12 diis_Fg
-rw-r--r--  1 brunocamino  admin   374976 15 Feb 18:10 diis_Fia1
-rw-r--r--  1 brunocamino  admin   395808 15 Feb 18:12 diis_Fia2
-rw-r--r--  1 brunocamino  admin        0 15 Feb 17:47 diis_Sk
-rw-r--r--  1 brunocamino  admin  1190112 15 Feb 18:10 fort.10
-rw-r--r--  1 brunocamino  admin    47616 15 Feb 18:12 fort.11
-rw-r--r--  1 brunocamino  admin     1723 15 Feb 17:47 fort.34
-rw-r--r--  1 brunocamino  admin    66880 15 Feb 17:47 fort.61
-rw-r--r--  1 brunocamino  admin    42752 15 Feb 17:47 fort.62
-rw-r--r--  1 brunocamino  admin  1190112 15 Feb 18:12 fort.8
-rw-r--r--  1 brunocamino  admin   298780 15 Feb 18:13 fort.9
-rw-r--r--  1 brunocamino  admin   109120 15 Feb 18:10 fort.95
-rw-r--r--  1 brunocamino  admin   773602 15 Feb 18:13 fort.98
wave function binary file /Users/brunocamino/Desktop/Imperial/cmsg_icl/ml-surface-adsorption/data/Cu_O_100_7_BSSE_sub.f9
file fort.98 saved as /Users/brunocamino/Desktop/Imperial/cmsg_icl/ml-surface-adsorption/data/Cu_O_100_7_BSSE_sub.f98
geometry input file fort.34 saved as /Users/brunocamino/Desktop/Imperial/cmsg_icl/ml-surface-adsorption/data/Cu_O_100_7_BSSE_sub.gui
temporary directory /Users/brunocamino/crystal/tmp removed
