date Tue 15 Feb 2022 13:58:10 GMT
hostname MacBook-Pro-3.local
system Darwin MacBook-Pro-3.local 21.3.0 Darwin Kernel Version 21.3.0: Wed Jan 5 21:37:58 PST 2022; root:xnu-8019.80.24~20/RELEASE_ARM64_T8101 arm64
user brunocamino
output data in /Users/brunocamino/Desktop/Imperial/cmsg_icl/ml-surface-adsorption/data/Cu_O_100_3_BSSE_sub.out
crystal executable in /Users/brunocamino/crystal
input data in /Users/brunocamino/Desktop/Imperial/cmsg_icl/ml-surface-adsorption/data/Cu_O_100_3_BSSE_sub.d12
temporary directory /Users/brunocamino/crystal/tmp
external geometry input from /Users/brunocamino/Desktop/Imperial/cmsg_icl/ml-surface-adsorption/data/Cu_O_100_3_BSSE_sub.gui
external geometry input saved in /Users/brunocamino/Desktop/Imperial/cmsg_icl/ml-surface-adsorption/data/Cu_O_100_3_BSSE_sub_inp.gui
Adsorption tests
EXTERNAL
EXTPRT
BASISSET
STO-3G
GHOSTS
2
2 3
DFT
B3LYP
XXLGRID
ENDDFT
TOLINTEG
5 5 5 5 10
SHRINK
6 12
MAXCYCLE
20
ENDSCF

         
 *******************************************************************************
 *                                                                             *
 *                               CRYSTAL17                                     *
 *                      public : 1.0.2 - March 1st, 2018                       *
 *                       HTTP://WWW.CRYSTAL.UNITO.IT                           *
 *                                                                             *
 *                              MAIN AUTHORS                                   *
 *                                                                             *
 *  R. DOVESI(1,11), V.R. SAUNDERS(2), C. ROETTI(1,11), R. ORLANDO(1,11),      *
 *  C.M. ZICOVICH-WILSON(1,3), F. PASCALE(4), B. CIVALLERI(1,11),              *
 *  K. DOLL(5), N.M. HARRISON(2,6), I.J. BUSH(7), Ph. D'ARCO(8),               *
 *  M. LLUNELL(9), M. CAUSA'(10), Y. NOEL(8), L. MASCHIO(1,11), A. ERBA(1,11)  *
 *  M. RE'RAT(14), S. CASASSA(1,11)                                            *
 *                                                                             *
 *        CONTRIBUTIONS TO THE CODE HAVE ALSO BEEN GIVEN BY                    *
 *                                                                             *
 *  M. FERRABONE(1,11), M. DE LA PIERRE(1,11), M. FERRERO(1,11),               *
 *  J. BAIMA(1,11), E. ALBANESE(1,11), M.F. PEINTINGER(12), R. BAST(13),       *
 *  B. KIRTMAN(15), V. LACIVITA(1,11), R. DEMICHELIS(1,16)                     *
 *  G. BRANDEBURG(17), S. SALUSTRO(1,11), G. SANSONE(1,11)                     *
 *  M.T. RUGGIERO(18)                                                          *
 *                                                                             *
 * (1) THEORETICAL CHEMISTRY GROUP - UNIVERSITA' DI TORINO - TORINO (ITALY)    *
 * (2) COMPUTATIONAL SCIENCE & ENGINEERING DEPARTMENT - STFC DARESBURY (UK)    *
 * (3) UNIVERSIDAD AUTONOMA DEL ESTADO DE MORELOS - CUERNAVACA (MEXICO)        *
 * (4) UNIVERSITE' DE LORRAINE - NANCY (FRANCE)                                *
 * (5) UNIVERSITAET STUTTGART- STUTTGART (GERMANY)                             *
 * (6) IMPERIAL COLLEGE - LONDON (UK)                                          *
 * (7) OXFORD E-RESEARCH CENTRE - OXFORD (UK)                                  *
 * (8) UPMC - SORBONNE UNIVERSITES - PARIS (FRANCE)                            *
 * (9) UNIVERSIDAD DE BARCELONA - BARCELONA (SPAIN)                            *
 *(10) UNIVERSITA' DI NAPOLI "FEDERICO II" - NAPOLI (ITALY)                    *
 *(11) NIS - NANOSTRUCTURED INTERFACES AND SURFACES - TORINO (ITALY)           *
 *(12) MPI FUER CHEMISCHE ENERGIEKONVERSION - MUELHEIM AN DER RUHR (GERMANY)   *
 *(13) UNIVERSITY OF TROMSO - TROMSO (NORWAY)                                  *
 *(14) UNIVERSITE' DE PAU ET DES PAYS DE L'ADOUR - PAU (FRANCE)                *
 *(15) UNIVERSITY OF CALIFORNIA SANTA BARBARA - SANTA BARBARA (USA)            *
 *(16) CURTIN UNIVERSITY - PERTH (AUSTRALIA)                                   *
 *(17) UNIVERSITY COLLEGE LONDON - LONDON (UK)                                 *
 *(18) CAMBRIDGE UNIVERSITY - CAMBRIDGE (UK)                                   *
 *                                                                             *
 *******************************************************************************
 EEEEEEEEEE STARTING  DATE 15 02 2022 TIME 13:58:11.0
 Adsorption tests                                                                

 GEOMETRY INPUT FROM EXTERNAL FILE (FORTRAN UNIT 34)
 2D - SLAB    

 *******************************************************************************
 LATTICE PARAMETERS  (ANGSTROMS AND DEGREES) - PRIMITIVE CELL
       A          B          C        ALPHA      BETA     GAMMA        VOLUME
    2.56062    2.56062  500.00000    90.00000  90.00000 120.00000      5.678329
 INFORMATION **** CHKGRP **** SPGR WITH NO INVERSION

 NUMBER OF IRREDUCIBLE ATOMS IN THE CELL:    3

 CARTESIAN COORDINATES (ANGSTROM) - IRREDUCIBLE ATOMS AND SYMMETRY RELATED

 AT.IRR.  AT  AT.N.          X                   Y                   Z
     1     1    29    1.280309458327E+00  7.391870104110E-01  1.045370000000E+00
     2     2     8    1.280309458327E+00  2.217561031233E+00 -9.546300000000E-01
     3     3     8    0.000000000000E+00  1.478374020822E+00  3.045370000000E+00

 SYMMETRY CHANGED DURING OLD RUN :  INFORMATION ON SPACE GROUP LOST 
 NUMBER OF SYMMETRY OPERATORS         :    6
 *******************************************************************************
 LATTICE PARAMETERS (ANGSTROMS AND DEGREES) - BOHR = 0.5291772083 ANGSTROM
 PRIMITIVE CELL
         A              B              C           ALPHA      BETA       GAMMA 
     2.56061892     2.56061892   500.00000000    90.000000  90.000000 120.000000
 *******************************************************************************
 ATOMS IN THE ASYMMETRIC UNIT    3 - ATOMS IN THE UNIT CELL:    3
     ATOM                 X/A                 Y/B             Z(ANGSTROM)
 *******************************************************************************
      1 T  29 CU    3.333333333319E-01 -3.333333333343E-01  1.045370000000E+00
      2 T   8 O    -1.848021735640E-12 -4.951594689828E-13 -9.546300000000E-01
      3 T   8 O    -3.333333333338E-01  3.333333333338E-01  3.045370000000E+00

 T = ATOM BELONGING TO THE ASYMMETRIC UNIT
 *******************************************************************************
 * GEOMETRY EDITING - INPUT COORDINATES ARE GIVEN IN ANGSTROM         
 *******************************************************************************

 GEOMETRY NOW FULLY CONSISTENT WITH THE GROUP

 GCALCO - MAX INDICES DIRECT LATTICE VECTOR    83    83     0
 NO.OF VECTORS CREATED 6999 STARS  503 RMAX   212.74519 BOHR

 GEOMETRY FOR WAVE FUNCTION - DIMENSIONALITY OF THE SYSTEM    2
 (NON PERIODIC DIRECTION: LATTICE PARAMETER FORMALLY SET TO 500)
 *******************************************************************************
 LATTICE PARAMETERS (ANGSTROMS AND DEGREES) - BOHR = 0.5291772083 ANGSTROM
 PRIMITIVE CELL
         A              B              C           ALPHA      BETA       GAMMA 
     2.56061892     2.56061892   500.00000000    90.000000  90.000000 120.000000
 *******************************************************************************
 ATOMS IN THE ASYMMETRIC UNIT    3 - ATOMS IN THE UNIT CELL:    3
     ATOM                 X/A                 Y/B             Z(ANGSTROM)
 *******************************************************************************
      1 T  29 CU    3.333333333333E-01 -3.333333333333E-01  1.045370000000E+00
      2 T   8 O     5.551115123126E-17 -1.110223024625E-16 -9.546300000000E-01
      3 T   8 O    -3.333333333333E-01  3.333333333333E-01  3.045370000000E+00

 T = ATOM BELONGING TO THE ASYMMETRIC UNIT

 ****    6 SYMMOPS - TRANSLATORS IN FRACTIONAL UNITS
 **** MATRICES AND TRANSLATORS IN THE CRYSTALLOGRAPHIC REFERENCE FRAME
   V INV                    ROTATION MATRICES                   TRANSLATORS
   1   1  1.00  0.00  0.00  0.00  1.00  0.00  0.00  0.00  1.00  0.00  0.00  0.00
   2   3 -0.00 -1.00  0.00  1.00 -1.00  0.00  0.00  0.00  1.00  0.00  0.00  0.00
   3   2 -1.00  1.00  0.00 -1.00 -0.00  0.00  0.00  0.00  1.00  0.00  0.00  0.00
   4   4  0.00 -1.00  0.00 -1.00  0.00  0.00  0.00  0.00  1.00  0.00  0.00  0.00
   5   5 -1.00  1.00  0.00  0.00  1.00  0.00  0.00  0.00  1.00  0.00  0.00  0.00
   6   6  1.00  0.00  0.00  1.00 -1.00  0.00  0.00  0.00  1.00  0.00  0.00  0.00

 DIRECT LATTICE VECTORS CARTESIAN COMPONENTS (ANGSTROM)
          X                    Y                    Z
   0.128030945833E+01  -0.221756103123E+01   0.000000000000E+00
   0.128030945833E+01   0.221756103123E+01   0.000000000000E+00
   0.000000000000E+00   0.000000000000E+00   0.500000000000E+03


 CARTESIAN COORDINATES - PRIMITIVE CELL
 *******************************************************************************
 *      ATOM          X(ANGSTROM)         Y(ANGSTROM)         Z(ANGSTROM)
 *******************************************************************************
    1    29 CU    1.280309458330E+00  7.391870104100E-01  1.045370000000E+00
    2     8 O     1.280309458330E+00  2.217561031230E+00 -9.546300000000E-01
    3     8 O     0.000000000000E+00  1.478374020820E+00  3.045370000000E+00

 *******************************************************************************
 STARTING BASIS SET HANDLING 
 *******************************************************************************

 Loading internal basis set: STO-3G              

 Please cite in your publication:
 H - Ne: W.J. Hehre, R.F. Stewart and J.A. Pople, J. Chem. Phys. 2657 (1969).   
                                                                                
                                                                                
                    
 Na - Ar: W.J. Hehre, R. Ditchfield, R.F. Stewart, J.A. Pople, J. Chem. Phys.  2
 769 (1970).                                                                    
                                                                                
                    
 K,Ca: W.J. Pietro, B.A. Levy, W.J. Hehre and R.F. Stewart, Inorg. Chem., 1980, 
 19 (8), pp 2225-2229                                                           
                                                                                
                    
 Ga-Kr: J. Am. Chem. Soc. 19, 2225 (1980).                                      
                                                                                
                                                                                
                    
 Sc-Zn, Y-Cd: W.J. Pietro and W.J. Hehre, J. Comp. Chem. 4, 241 (1983).         
                                                                                
                                                                                
                    

 *******************************************************************************
 LOCAL ATOMIC FUNCTIONS BASIS SET
 *******************************************************************************
   ATOM   X(AU)   Y(AU)   Z(AU)  N. TYPE  EXPONENT  S COEF   P COEF   D/F/G COEF
 *******************************************************************************
   1 CU   2.419   1.397   1.975
                                  1 S  
                                         1.802E+03 1.543E-01 0.000E+00 0.000E+00
                                         3.282E+02 5.353E-01 0.000E+00 0.000E+00
                                         8.882E+01 4.446E-01 0.000E+00 0.000E+00
                                  2 S  
                                         1.441E+02-9.997E-02 0.000E+00 0.000E+00
                                         3.349E+01 3.995E-01 0.000E+00 0.000E+00
                                         1.089E+01 7.001E-01 0.000E+00 0.000E+00
                                  3 S  
                                         1.131E+01-2.278E-01 0.000E+00 0.000E+00
                                         3.449E+00 2.175E-01 0.000E+00 0.000E+00
                                         1.331E+00 9.167E-01 0.000E+00 0.000E+00
                                  4 S  
                                         6.309E-01-3.088E-01 0.000E+00 0.000E+00
                                         2.329E-01 1.961E-02 0.000E+00 0.000E+00
                                         1.028E-01 1.131E+00 0.000E+00 0.000E+00
                           5-     7 P  
                                         1.441E+02 0.000E+00 1.559E-01 0.000E+00
                                         3.349E+01 0.000E+00 6.077E-01 0.000E+00
                                         1.089E+01 0.000E+00 3.920E-01 0.000E+00
                           8-    10 P  
                                         1.131E+01 0.000E+00 4.952E-03 0.000E+00
                                         3.449E+00 0.000E+00 5.778E-01 0.000E+00
                                         1.331E+00 0.000E+00 4.846E-01 0.000E+00
                          11-    13 P  
                                         6.309E-01 0.000E+00-1.215E-01 0.000E+00
                                         2.329E-01 0.000E+00 5.715E-01 0.000E+00
                                         1.028E-01 0.000E+00 5.499E-01 0.000E+00
                          14-    18 D  
                                         9.648E+00 0.000E+00 0.000E+00 2.198E-01
                                         2.943E+00 0.000E+00 0.000E+00 6.555E-01
                                         1.135E+00 0.000E+00 0.000E+00 2.866E-01
   2 O    2.419   4.191  -1.804
                                 19 S  
                                         1.307E+02 1.543E-01 0.000E+00 0.000E+00
                                         2.381E+01 5.353E-01 0.000E+00 0.000E+00
                                         6.444E+00 4.446E-01 0.000E+00 0.000E+00
                                 20 S  
                                         5.033E+00-9.997E-02 0.000E+00 0.000E+00
                                         1.170E+00 3.995E-01 0.000E+00 0.000E+00
                                         3.804E-01 7.001E-01 0.000E+00 0.000E+00
                          21-    23 P  
                                         5.033E+00 0.000E+00 1.559E-01 0.000E+00
                                         1.170E+00 0.000E+00 6.077E-01 0.000E+00
                                         3.804E-01 0.000E+00 3.920E-01 0.000E+00
   3 O    0.000   2.794   5.755

 *******************************************************************************
 FINISHED BASIS SET HANDLING 
 *******************************************************************************

 INFORMATION **** SET_MPP **** PCRYSTAL CALCULATION
 INFORMATION **** READM2 **** NEW DEFAULT: FOCK/KS MATRIX MIXING SET TO 30 %
 INFORMATION **** READM2 **** NEW DEFAULT: FULL DIRECT SCF MODE
 INFORMATION **** READM2 **** NEW DEFAULT: COULOMB BIPOLAR BUFFER SET TO 32 Mb
 INFORMATION **** READM2 **** NEW DEFAULT: EXCHANGE BIPOLAR BUFFER SET TO 32 Mb

 *******************************************************************************
 * ATOMS TRANSFORMED INTO GHOSTS :   2
   2(  8)   3(  8)
 SYMMETRY MAY BE BROKEN

 *******************************************************************************
 NEW DEFAULT: DFT INTEGRATION GRID INCREASED TO XLGRID
 NEW DEFAULT: DIIS ACCELERATOR ACTIVE
 USE KEYWORD NODIIS TO TURN IT OFF
 *******************************************************************************

 INFORMATION **** TOLINTEG **** COULOMB AND EXCHANGE SERIES TOLERANCES MODIFIED
 INFORMATION **** MAXCYCLE **** MAX NUMBER OF SCF CYCLES SET TO          20

 GHOST ATOMS - REMOVAL OF NUCLEAR CHARGE AND ELECTRONS
 TOTAL NUCLEAR CHARGE        2.900000E+01
 TOTAL ELECTRONIC CHARGE     2.900000E+01
 *******************************************************************************
 N. OF ATOMS PER CELL         3  COULOMB OVERLAP TOL         (T1) 10**   -5
 NUMBER OF SHELLS            14  COULOMB PENETRATION TOL     (T2) 10**   -5
 NUMBER OF AO                28  EXCHANGE OVERLAP TOL        (T3) 10**   -5
 N. OF ELECTRONS PER CELL    29  EXCHANGE PSEUDO OVP (F(G))  (T4) 10**   -5
 CORE ELECTRONS PER CELL     18  EXCHANGE PSEUDO OVP (P(G))  (T5) 10**  -10
 N. OF SYMMETRY OPERATORS     6  POLE ORDER IN MONO ZONE                  4
 *******************************************************************************
 TYPE OF CALCULATION :  RESTRICTED CLOSED SHELL
 KOHN-SHAM HAMILTONIAN

 (EXCHANGE)[CORRELATION] FUNCTIONAL:(BECKE 88)[LEE-YANG-PARR]

 NON-LOCAL WEIGHTING FACTOR (EXCHANGE) =           0.9000
 NON-LOCAL WEIGHTING FACTOR [CORRELATION] =        0.8100

 HYBRID EXCHANGE - PERCENTAGE OF FOCK EXCHANGE    20.0000

 CAPPA:IS1  6;IS2  6;IS3  1; K PTS MONK NET   7; SYMMOPS:K SPACE  12;G SPACE   6

 *******************************************************************************
 MAX NUMBER OF SCF CYCLES      20  CONVERGENCE ON DELTAP        10**-16
 WEIGHT OF F(I) IN F(I+1)      30% CONVERGENCE ON ENERGY        10**- 6
 SHRINK. FACT.(MONKH.)    6  6  1  NUMBER OF K POINTS IN THE IBZ      7
 SHRINKING FACTOR(GILAT NET)   12  NUMBER OF K POINTS(GILAT NET)     19
 *******************************************************************************
 *** K POINTS COORDINATES (OBLIQUE COORDINATES IN UNITS OF IS =  6)
   1-R(  0  0  0)   2-C(  1  0  0)   3-C(  2  0  0)   4-R(  3  0  0)
   5-C(  1  1  0)   6-C(  2  1  0)   7-C(  2  2  0)

 DIRECT LATTICE VECTORS COMPON. (A.U.)     RECIP. LATTICE VECTORS COMPON. (A.U.) 
        X            Y            Z              X            Y            Z
    2.4194342   -4.1905830    0.0000000      1.2984823   -0.7496791    0.0000000
    2.4194342    4.1905830    0.0000000      1.2984823    0.7496791    0.0000000
    0.0000000    0.0000000  944.8630670      0.0000000    0.0000000    0.0066498

 DISK SPACE FOR EIGENVECTORS (FTN 10)        9408 REALS

 SYMMETRY ADAPTION OF THE BLOCH FUNCTIONS ENABLED
 TTTTTTTTTTTTTTTTTTTTTTTTTTTTTT gordsh1     TELAPSE        0.01 TCPU        0.01

 MATRIX SIZE: P(G)   12248, F(G)    2625, P(G) IRR    1640, F(G) IRR     819
 MAX G-VECTOR INDEX FOR 1- AND 2-ELECTRON INTEGRALS  73

 TTTTTTTTTTTTTTTTTTTTTTTTTTTTTT INPUT       TELAPSE        0.01 TCPU        0.01

 NEIGHBORS OF THE NON-EQUIVALENT ATOMS

 N = NUMBER OF NEIGHBORS AT DISTANCE R
    ATOM  N     R/ANG      R/AU   NEIGHBORS (ATOM LABELS AND CELL INDICES)
   1 CU   6     2.4871     4.6999    2 XX   0 0 0    2 XX   1 0 0    2 XX   0-1 0
                                     3 XX   0 0 0    3 XX   1 1 0    3 XX   1 0 0
   1 CU   6     2.5606     4.8389    1 CU  -1 0 0    1 CU   1 0 0    1 CU   0-1 0
                                     1 CU   0 1 0    1 CU  -1-1 0    1 CU   1 1 0
   1 CU   6     3.5696     6.7456    2 XX   1-1 0    3 XX   0 1 0    2 XX   1 1 0
                                     2 XX  -1-1 0    3 XX   0-1 0    3 XX   2 1 0
   1 CU  12     4.3931     8.3017    2 XX  -1 0 0    2 XX   0 1 0    3 XX   1-1 0
                                     3 XX   2 0 0    2 XX   2 0 0    2 XX   0-2 0
                                     3 XX  -1 0 0    3 XX   1 2 0    2 XX   2 1 0
                                     2 XX  -1-2 0    3 XX  -1-1 0    3 XX   2 2 0
   1 CU   6     4.4351     8.3812    1 CU  -1 1 0    1 CU   1-1 0    1 CU  -2-1 0
                                     1 CU   2 1 0    1 CU  -1-2 0    1 CU   1 2 0
   1 CU   6     5.1212     9.6777    1 CU  -2 0 0    1 CU   2 0 0    1 CU   0-2 0
                                     1 CU   0 2 0    1 CU  -2-2 0    1 CU   2 2 0

   2 XX   3     2.4871     4.6999    1 CU   0 0 0    1 CU  -1 0 0    1 CU   0 1 0
   2 XX   6     2.5606     4.8389    2 XX  -1 0 0    2 XX   1 0 0    2 XX   0-1 0
                                     2 XX   0 1 0    2 XX  -1-1 0    2 XX   1 1 0
   2 XX   3     3.5696     6.7456    1 CU  -1 1 0    1 CU  -1-1 0    1 CU   1 1 0
   2 XX   3     4.2645     8.0587    3 XX   0 0 0    3 XX   1 1 0    3 XX   0 1 0
   2 XX   6     4.3931     8.3017    1 CU   1 0 0    1 CU   0-1 0    1 CU  -2 0 0
                                     1 CU   0 2 0    1 CU  -2-1 0    1 CU   1 2 0
   2 XX   6     4.4351     8.3812    2 XX  -1 1 0    2 XX   1-1 0    2 XX  -2-1 0
                                     2 XX   2 1 0    2 XX  -1-2 0    2 XX   1 2 0

   3 XX   3     2.4871     4.6999    1 CU   0 0 0    1 CU  -1-1 0    1 CU  -1 0 0
   3 XX   6     2.5606     4.8389    3 XX  -1 0 0    3 XX   1 0 0    3 XX   0-1 0
                                     3 XX   0 1 0    3 XX  -1-1 0    3 XX   1 1 0
   3 XX   3     3.5696     6.7456    1 CU   0-1 0    1 CU   0 1 0    1 CU  -2-1 0
   3 XX   3     4.2645     8.0587    2 XX   0 0 0    2 XX  -1-1 0    2 XX   0-1 0
   3 XX   6     4.3931     8.3017    1 CU  -1 1 0    1 CU  -2 0 0    1 CU   1 0 0
                                     1 CU  -1-2 0    1 CU   1 1 0    1 CU  -2-2 0
   3 XX   6     4.4351     8.3812    3 XX  -1 1 0    3 XX   1-1 0    3 XX  -2-1 0
                                     3 XX   2 1 0    3 XX  -1-2 0    3 XX   1 2 0


 SYMMETRY ALLOWED INTERNAL DEGREE(S) OF FREEDOM:   2
 WARNING **** CNSTRQ **** UNABLE TO REDUCE REPRESENTATION           2
 TTTTTTTTTTTTTTTTTTTTTTTTTTTTTT SYMM        TELAPSE        0.01 TCPU        0.01
 TTTTTTTTTTTTTTTTTTTTTTTTTTTTTT INT_SCREEN  TELAPSE        0.01 TCPU        0.01
 INFORMATION **** EXCBUF **** EXCH. BIPO BUFFER: WORDS USED =       75078

 DFT PARAMETERS

     ATOM       ELECTRONS   NET CHARGE   R(ANGSTROM)
   1  29  CU     29.0000      0.0000     1.28000000
   2   0  XX      0.0000      0.0000     0.50000000

 SIZE OF GRID=      65130
 TTTTTTTTTTTTTTTTTTTTTTTTTTTTTT MAKE_GRID2  TELAPSE        0.18 TCPU        0.18
 BECKE WEIGHT FUNCTION
 RADSAFE =     2.00
 TOLERANCES - DENSITY:10**- 6; POTENTIAL:10**- 9; GRID WGT:10**-14

 RADIAL INTEGRATION  - INTERVALS (POINTS,UPPER LIMIT):            1( 99,  4.0*R)

 ANGULAR INTEGRATION - INTERVALS (ACCURACY LEVEL [N. POINTS] UPPER LIMIT):
  1(  6[ 146]   0.2)  2( 11[ 302]   0.5)  3( 14[ 590]   0.9)  4( 18[1454]   3.5)
  5( 14[ 590]9999.0)

 GHOST ATOMS - REMOVAL OF NUCLEAR CHARGE AND ELECTRONS
 TOTAL NUCLEAR CHARGE        2.900000E+01
 TOTAL ELECTRONIC CHARGE     2.900000E+01
 TTTTTTTTTTTTTTTTTTTTTTTTTTTTTT INT_CALC    TELAPSE        0.18 TCPU        0.18
 EEEEEEEEEE INT_CALC TERMINATION  DATE 15 02 2022 TIME 13:58:11.2

 *******************************************************************************
 Adsorption tests                                                                
 CRYSTAL - SCF - TYPE OF CALCULATION :  RESTRICTED CLOSED SHELL
 *******************************************************************************

 CAPPA:IS1  6;IS2  6;IS3  1; K PTS MONK NET   7; SYMMOPS:K SPACE  12;G SPACE   6

 TTTTTTTTTTTTTTTTTTTTTTTTTTTTTT SDIK        TELAPSE        0.19 TCPU        0.19

 AAAAAAAAAAAAAAAAAAAAAAAAAAAAAAAAAAAAAAAAAAAAAAAAAAAAAAAAAAAAAAAAAAAAAAAAAAAAAAA
         ATOMIC WAVEFUNCTION(S)


 NUCLEAR CHARGE 29.0  SYMMETRY SPECIES            S    P    D
 N. ELECTRONS   29.0  NUMBER OF PRIMITIVE GTOS   12    9    3
                      NUMBER OF CONTRACTED GTOS   4    3    1
                      NUMBER OF CLOSED SHELLS     4    2    0
                      OPEN SHELL OCCUPATION       0    0    9

  ZNUC SCFIT  TOTAL HF ENERGY   KINETIC ENERGY   VIRIAL THEOREM ACCURACY
  29.0   5   -1.619844227E+03  1.626147454E+03 -1.996123828E+00  5.2E-07

 AAAAAAAAAAAAAAAAAAAAAAAAAAAAAAAAAAAAAAAAAAAAAAAAAAAAAAAAAAAAAAAAAAAAAAAAAAAAAAA

 CHARGE NORMALIZATION FACTOR   1.00000000
 TOTAL ATOMIC CHARGES:
  29.0000000   0.0000000   0.0000000
 TTTTTTTTTTTTTTTTTTTTTTTTTTTTTT MOQGAD      TELAPSE        0.19 TCPU        0.19
 TTTTTTTTTTTTTTTTTTTTTTTTTTTTTT SHELLXN     TELAPSE        2.41 TCPU        2.41
 TTTTTTTTTTTTTTTTTTTTTTTTTTTTTT MONMO3      TELAPSE        2.42 TCPU        2.42
 NUMERICALLY INTEGRATED DENSITY     28.9999679578
 TTTTTTTTTTTTTTTTTTTTTTTTTTTTTT NUMDFT      TELAPSE        2.85 TCPU        2.85
 CYC   0 ETOT(AU) -1.621040695110E+03 DETOT -1.62E+03 tst  0.00E+00 PX  1.00E+00
 TTTTTTTTTTTTTTTTTTTTTTTTTTTTTT DIIS        TELAPSE        2.85 TCPU        2.85
 TTTTTTTTTTTTTTTTTTTTTTTTTTTTTT FDIK        TELAPSE        2.85 TCPU        2.85
 POSSIBLY CONDUCTING STATE - EFERMI(AU)  7.8409235E-01 (RES. CHARGE  8.53E-11;IT. 16)
 TTTTTTTTTTTTTTTTTTTTTTTTTTTTTT PDIG        TELAPSE        2.85 TCPU        2.85
 CHARGE NORMALIZATION FACTOR   1.00000000
 TOTAL ATOMIC CHARGES:
  27.0613082   0.9693459   0.9693459
 TTTTTTTTTTTTTTTTTTTTTTTTTTTTTT MOQGAD      TELAPSE        2.85 TCPU        2.85
 TTTTTTTTTTTTTTTTTTTTTTTTTTTTTT SHELLXN     TELAPSE        5.12 TCPU        5.12
 TTTTTTTTTTTTTTTTTTTTTTTTTTTTTT MONMO3      TELAPSE        5.13 TCPU        5.13
 NUMERICALLY INTEGRATED DENSITY     28.9998061102
 TTTTTTTTTTTTTTTTTTTTTTTTTTTTTT NUMDFT      TELAPSE        6.14 TCPU        6.14
 CYC   1 ETOT(AU) -1.606479303368E+03 DETOT  1.46E+01 tst  0.00E+00 PX  1.00E+00
 TTTTTTTTTTTTTTTTTTTTTTTTTTTTTT DIIS        TELAPSE        6.14 TCPU        6.14
 DIIS TEST: 0.95916E+01 AT SCF   CYCLE   1 - MIX   30 %
 TTTTTTTTTTTTTTTTTTTTTTTTTTTTTT FDIK        TELAPSE        6.14 TCPU        6.14
 POSSIBLY CONDUCTING STATE - EFERMI(AU) -1.9002050E+00 (RES. CHARGE  1.11E-10;IT.  8)
 TTTTTTTTTTTTTTTTTTTTTTTTTTTTTT PDIG        TELAPSE        6.14 TCPU        6.14
 CHARGE NORMALIZATION FACTOR   1.00000000
 TOTAL ATOMIC CHARGES:
  29.0253410  -0.0126703  -0.0126707
 TTTTTTTTTTTTTTTTTTTTTTTTTTTTTT MOQGAD      TELAPSE        6.14 TCPU        6.14
 TTTTTTTTTTTTTTTTTTTTTTTTTTTTTT SHELLXN     TELAPSE        8.41 TCPU        8.40
 TTTTTTTTTTTTTTTTTTTTTTTTTTTTTT MONMO3      TELAPSE        8.42 TCPU        8.41
 NUMERICALLY INTEGRATED DENSITY     28.9999931039
 TTTTTTTTTTTTTTTTTTTTTTTTTTTTTT NUMDFT      TELAPSE        9.43 TCPU        9.43
 CYC   2 ETOT(AU) -1.619254929328E+03 DETOT -1.28E+01 tst  6.91E+00 PX  8.23E+00
 TTTTTTTTTTTTTTTTTTTTTTTTTTTTTT DIIS        TELAPSE        9.43 TCPU        9.43
 DIIS TEST: 0.50174E+00 AT SCF   CYCLE   2 - DIIS ACTIVE - HISTORY:     2 CYCLES
 TTTTTTTTTTTTTTTTTTTTTTTTTTTTTT FDIK        TELAPSE        9.43 TCPU        9.43
 POSSIBLY CONDUCTING STATE - EFERMI(AU)  8.7495498E-01 (RES. CHARGE  4.59E-11;IT.  6)
 TTTTTTTTTTTTTTTTTTTTTTTTTTTTTT PDIG        TELAPSE        9.44 TCPU        9.43
 CHARGE NORMALIZATION FACTOR   1.00000000
 TOTAL ATOMIC CHARGES:
  25.7456993   1.6271470   1.6271537
 TTTTTTTTTTTTTTTTTTTTTTTTTTTTTT MOQGAD      TELAPSE        9.44 TCPU        9.44
 TTTTTTTTTTTTTTTTTTTTTTTTTTTTTT SHELLXN     TELAPSE       11.70 TCPU       11.70
 TTTTTTTTTTTTTTTTTTTTTTTTTTTTTT MONMO3      TELAPSE       11.71 TCPU       11.71
 NUMERICALLY INTEGRATED DENSITY     28.9997902360
 TTTTTTTTTTTTTTTTTTTTTTTTTTTTTT NUMDFT      TELAPSE       12.73 TCPU       12.73
 CYC   3 ETOT(AU) -1.595645935049E+03 DETOT  2.36E+01 tst  8.40E-02 PX  8.71E+00
 TTTTTTTTTTTTTTTTTTTTTTTTTTTTTT DIIS        TELAPSE       12.73 TCPU       12.73
 DIIS TEST: 0.23310E+01 AT SCF   CYCLE   3 - DIIS ACTIVE - HISTORY:     3 CYCLES
 TTTTTTTTTTTTTTTTTTTTTTTTTTTTTT FDIK        TELAPSE       12.73 TCPU       12.73
 POSSIBLY CONDUCTING STATE - EFERMI(AU) -7.0995177E-01 (RES. CHARGE  1.88E-13;IT. 14)
 TTTTTTTTTTTTTTTTTTTTTTTTTTTTTT PDIG        TELAPSE       12.73 TCPU       12.73
 CHARGE NORMALIZATION FACTOR   1.00000000
 TOTAL ATOMIC CHARGES:
  29.0376909  -0.0188452  -0.0188458
 TTTTTTTTTTTTTTTTTTTTTTTTTTTTTT MOQGAD      TELAPSE       12.74 TCPU       12.73
 TTTTTTTTTTTTTTTTTTTTTTTTTTTTTT SHELLXN     TELAPSE       14.99 TCPU       14.99
 TTTTTTTTTTTTTTTTTTTTTTTTTTTTTT MONMO3      TELAPSE       15.00 TCPU       15.00
 NUMERICALLY INTEGRATED DENSITY     28.9999818994
 TTTTTTTTTTTTTTTTTTTTTTTTTTTTTT NUMDFT      TELAPSE       16.01 TCPU       16.01
 CYC   4 ETOT(AU) -1.621125460777E+03 DETOT -2.55E+01 tst  4.66E-01 PX  7.86E+00
 TTTTTTTTTTTTTTTTTTTTTTTTTTTTTT DIIS        TELAPSE       16.02 TCPU       16.01
 DIIS TEST: 0.19931E+00 AT SCF   CYCLE   4 - DIIS ACTIVE - HISTORY:     4 CYCLES
 TTTTTTTTTTTTTTTTTTTTTTTTTTTTTT FDIK        TELAPSE       16.02 TCPU       16.01
 POSSIBLY CONDUCTING STATE - EFERMI(AU) -6.1173162E-01 (RES. CHARGE  3.62E-11;IT. 16)
 TTTTTTTTTTTTTTTTTTTTTTTTTTTTTT PDIG        TELAPSE       16.02 TCPU       16.01
 CHARGE NORMALIZATION FACTOR   1.00000000
 TOTAL ATOMIC CHARGES:
  29.0289860  -0.0144930  -0.0144931
 TTTTTTTTTTTTTTTTTTTTTTTTTTTTTT MOQGAD      TELAPSE       16.02 TCPU       16.02
 TTTTTTTTTTTTTTTTTTTTTTTTTTTTTT SHELLXN     TELAPSE       18.30 TCPU       18.29
 TTTTTTTTTTTTTTTTTTTTTTTTTTTTTT MONMO3      TELAPSE       18.31 TCPU       18.30
 NUMERICALLY INTEGRATED DENSITY     28.9999831488
 TTTTTTTTTTTTTTTTTTTTTTTTTTTTTT NUMDFT      TELAPSE       19.32 TCPU       19.31
 CYC   5 ETOT(AU) -1.620779084320E+03 DETOT  3.46E-01 tst  5.11E-03 PX  1.88E-01
 TTTTTTTTTTTTTTTTTTTTTTTTTTTTTT DIIS        TELAPSE       19.32 TCPU       19.32
 DIIS TEST: 0.12404E+00 AT SCF   CYCLE   5 - DIIS ACTIVE - HISTORY:     5 CYCLES
 TTTTTTTTTTTTTTTTTTTTTTTTTTTTTT FDIK        TELAPSE       19.32 TCPU       19.32
 POSSIBLY CONDUCTING STATE - EFERMI(AU)  3.8791400E-01 (RES. CHARGE  1.01E-12;IT. 10)
 TTTTTTTTTTTTTTTTTTTTTTTTTTTTTT PDIG        TELAPSE       19.32 TCPU       19.32
 CHARGE NORMALIZATION FACTOR   1.00000000
 TOTAL ATOMIC CHARGES:
  28.9017241   0.0491387   0.0491372
 TTTTTTTTTTTTTTTTTTTTTTTTTTTTTT MOQGAD      TELAPSE       19.33 TCPU       19.32
 TTTTTTTTTTTTTTTTTTTTTTTTTTTTTT SHELLXN     TELAPSE       21.59 TCPU       21.58
 TTTTTTTTTTTTTTTTTTTTTTTTTTTTTT MONMO3      TELAPSE       21.60 TCPU       21.59
 NUMERICALLY INTEGRATED DENSITY     28.9998435969
 TTTTTTTTTTTTTTTTTTTTTTTTTTTTTT NUMDFT      TELAPSE       22.61 TCPU       22.60
 CYC   6 ETOT(AU) -1.618627662396E+03 DETOT  2.15E+00 tst  2.85E+00 PX  5.47E+00
 TTTTTTTTTTTTTTTTTTTTTTTTTTTTTT DIIS        TELAPSE       22.61 TCPU       22.61
 DIIS TEST: 0.46905E+00 AT SCF   CYCLE   6 - DIIS ACTIVE - HISTORY:     6 CYCLES
 TTTTTTTTTTTTTTTTTTTTTTTTTTTTTT FDIK        TELAPSE       22.61 TCPU       22.61
 POSSIBLY CONDUCTING STATE - EFERMI(AU)  3.5763581E-01 (RES. CHARGE  1.44E-13;IT. 12)
 TTTTTTTTTTTTTTTTTTTTTTTTTTTTTT PDIG        TELAPSE       22.61 TCPU       22.61
 CHARGE NORMALIZATION FACTOR   1.00000000
 TOTAL ATOMIC CHARGES:
  28.9089438   0.0455283   0.0455279
 TTTTTTTTTTTTTTTTTTTTTTTTTTTTTT MOQGAD      TELAPSE       22.62 TCPU       22.61
 TTTTTTTTTTTTTTTTTTTTTTTTTTTTTT SHELLXN     TELAPSE       24.90 TCPU       24.89
 TTTTTTTTTTTTTTTTTTTTTTTTTTTTTT MONMO3      TELAPSE       24.91 TCPU       24.90
 NUMERICALLY INTEGRATED DENSITY     28.9998439642
 TTTTTTTTTTTTTTTTTTTTTTTTTTTTTT NUMDFT      TELAPSE       25.92 TCPU       25.91
 CYC   7 ETOT(AU) -1.618795939562E+03 DETOT -1.68E-01 tst  3.41E-04 PX  1.95E-01
 TTTTTTTTTTTTTTTTTTTTTTTTTTTTTT DIIS        TELAPSE       25.92 TCPU       25.91
 DIIS TEST: 0.43083E+00 AT SCF   CYCLE   7 - DIIS ACTIVE - HISTORY:     7 CYCLES
 TTTTTTTTTTTTTTTTTTTTTTTTTTTTTT FDIK        TELAPSE       25.92 TCPU       25.92
 POSSIBLY CONDUCTING STATE - EFERMI(AU)  4.0534820E-01 (RES. CHARGE  7.28E-14;IT. 10)
 TTTTTTTTTTTTTTTTTTTTTTTTTTTTTT PDIG        TELAPSE       25.92 TCPU       25.92
 CHARGE NORMALIZATION FACTOR   1.00000000
 TOTAL ATOMIC CHARGES:
  28.8942724   0.0528642   0.0528635
 TTTTTTTTTTTTTTTTTTTTTTTTTTTTTT MOQGAD      TELAPSE       25.93 TCPU       25.92
 TTTTTTTTTTTTTTTTTTTTTTTTTTTTTT SHELLXN     TELAPSE       28.19 TCPU       28.18
 TTTTTTTTTTTTTTTTTTTTTTTTTTTTTT MONMO3      TELAPSE       28.20 TCPU       28.19
 NUMERICALLY INTEGRATED DENSITY     28.9998434828
 TTTTTTTTTTTTTTTTTTTTTTTTTTTTTT NUMDFT      TELAPSE       29.21 TCPU       29.20
 CYC   8 ETOT(AU) -1.618611870006E+03 DETOT  1.84E-01 tst  3.80E-04 PX  1.99E-01
 TTTTTTTTTTTTTTTTTTTTTTTTTTTTTT DIIS        TELAPSE       29.21 TCPU       29.20
 DIIS TEST: 0.47826E+00 AT SCF   CYCLE   8 - DIIS ACTIVE - HISTORY:     8 CYCLES
 TTTTTTTTTTTTTTTTTTTTTTTTTTTTTT FDIK        TELAPSE       29.21 TCPU       29.20
 POSSIBLY CONDUCTING STATE - EFERMI(AU)  3.4740442E-01 (RES. CHARGE  6.17E-11;IT. 16)
 TTTTTTTTTTTTTTTTTTTTTTTTTTTTTT PDIG        TELAPSE       29.21 TCPU       29.20
 CHARGE NORMALIZATION FACTOR   1.00000000
 TOTAL ATOMIC CHARGES:
  28.9087145   0.0456431   0.0456424
 TTTTTTTTTTTTTTTTTTTTTTTTTTTTTT MOQGAD      TELAPSE       29.22 TCPU       29.21
 TTTTTTTTTTTTTTTTTTTTTTTTTTTTTT SHELLXN     TELAPSE       31.48 TCPU       31.47
 TTTTTTTTTTTTTTTTTTTTTTTTTTTTTT MONMO3      TELAPSE       31.49 TCPU       31.48
 NUMERICALLY INTEGRATED DENSITY     28.9998443591
 TTTTTTTTTTTTTTTTTTTTTTTTTTTTTT NUMDFT      TELAPSE       32.51 TCPU       32.50
 CYC   9 ETOT(AU) -1.618993678321E+03 DETOT -3.82E-01 tst  1.69E-03 PX  4.56E-01
 TTTTTTTTTTTTTTTTTTTTTTTTTTTTTT DIIS        TELAPSE       32.51 TCPU       32.50
 DIIS TEST: 0.41587E+00 AT SCF   CYCLE   9 - DIIS ACTIVE - HISTORY:     9 CYCLES
 TTTTTTTTTTTTTTTTTTTTTTTTTTTTTT FDIK        TELAPSE       32.51 TCPU       32.50
 POSSIBLY CONDUCTING STATE - EFERMI(AU)  3.0192116E-01 (RES. CHARGE  5.52E-12;IT. 14)
 TTTTTTTTTTTTTTTTTTTTTTTTTTTTTT PDIG        TELAPSE       32.51 TCPU       32.51
 CHARGE NORMALIZATION FACTOR   1.00000000
 TOTAL ATOMIC CHARGES:
  28.9277793   0.0361102   0.0361105
 TTTTTTTTTTTTTTTTTTTTTTTTTTTTTT MOQGAD      TELAPSE       32.52 TCPU       32.51
 TTTTTTTTTTTTTTTTTTTTTTTTTTTTTT SHELLXN     TELAPSE       34.78 TCPU       34.77
 TTTTTTTTTTTTTTTTTTTTTTTTTTTTTT MONMO3      TELAPSE       34.79 TCPU       34.78
 NUMERICALLY INTEGRATED DENSITY     28.9998454807
 TTTTTTTTTTTTTTTTTTTTTTTTTTTTTT NUMDFT      TELAPSE       35.80 TCPU       35.79
 CYC  10 ETOT(AU) -1.619101429792E+03 DETOT -1.08E-01 tst  2.07E-04 PX  1.43E-01
 TTTTTTTTTTTTTTTTTTTTTTTTTTTTTT DIIS        TELAPSE       35.80 TCPU       35.79
 DIIS TEST: 0.36433E+00 AT SCF   CYCLE  10 - DIIS ACTIVE - HISTORY:    10 CYCLES
 TTTTTTTTTTTTTTTTTTTTTTTTTTTTTT FDIK        TELAPSE       35.80 TCPU       35.79
 POSSIBLY CONDUCTING STATE - EFERMI(AU) -3.0437528E-01 (RES. CHARGE  1.92E-12;IT. 12)
 TTTTTTTTTTTTTTTTTTTTTTTTTTTTTT PDIG        TELAPSE       35.81 TCPU       35.79
 CHARGE NORMALIZATION FACTOR   1.00000000
 TOTAL ATOMIC CHARGES:
  29.0233027  -0.0116513  -0.0116513
 TTTTTTTTTTTTTTTTTTTTTTTTTTTTTT MOQGAD      TELAPSE       35.81 TCPU       35.80
 TTTTTTTTTTTTTTTTTTTTTTTTTTTTTT SHELLXN     TELAPSE       38.07 TCPU       38.06
 TTTTTTTTTTTTTTTTTTTTTTTTTTTTTT MONMO3      TELAPSE       38.08 TCPU       38.07
 NUMERICALLY INTEGRATED DENSITY     28.9999693920
 TTTTTTTTTTTTTTTTTTTTTTTTTTTTTT NUMDFT      TELAPSE       39.09 TCPU       39.08
 CYC  11 ETOT(AU) -1.621291324352E+03 DETOT -2.19E+00 tst  6.87E-01 PX  4.35E+00
 TTTTTTTTTTTTTTTTTTTTTTTTTTTTTT DIIS        TELAPSE       39.10 TCPU       39.08
 DIIS TEST: 0.27240E-01 AT SCF   CYCLE  11 - DIIS ACTIVE - HISTORY:    11 CYCLES
 TTTTTTTTTTTTTTTTTTTTTTTTTTTTTT FDIK        TELAPSE       39.10 TCPU       39.09
 POSSIBLY CONDUCTING STATE - EFERMI(AU) -9.1643513E-02 (RES. CHARGE  2.46E-12;IT. 10)
 TTTTTTTTTTTTTTTTTTTTTTTTTTTTTT PDIG        TELAPSE       39.10 TCPU       39.09
 CHARGE NORMALIZATION FACTOR   1.00000000
 TOTAL ATOMIC CHARGES:
  29.0104658  -0.0052330  -0.0052328
 TTTTTTTTTTTTTTTTTTTTTTTTTTTTTT MOQGAD      TELAPSE       39.10 TCPU       39.09
 TTTTTTTTTTTTTTTTTTTTTTTTTTTTTT SHELLXN     TELAPSE       41.37 TCPU       41.35
 TTTTTTTTTTTTTTTTTTTTTTTTTTTTTT MONMO3      TELAPSE       41.38 TCPU       41.37
 NUMERICALLY INTEGRATED DENSITY     28.9999199520
 TTTTTTTTTTTTTTTTTTTTTTTTTTTTTT NUMDFT      TELAPSE       42.40 TCPU       42.38
 CYC  12 ETOT(AU) -1.621551723354E+03 DETOT -2.60E-01 tst  2.58E-02 PX  1.03E+00
 TTTTTTTTTTTTTTTTTTTTTTTTTTTTTT DIIS        TELAPSE       42.40 TCPU       42.39
 DIIS TEST: 0.20915E-02 AT SCF   CYCLE  12 - DIIS ACTIVE - HISTORY:    12 CYCLES
 TTTTTTTTTTTTTTTTTTTTTTTTTTTTTT FDIK        TELAPSE       42.40 TCPU       42.39
 POSSIBLY CONDUCTING STATE - EFERMI(AU) -1.2452361E-01 (RES. CHARGE  4.39E-12;IT. 16)
 TTTTTTTTTTTTTTTTTTTTTTTTTTTTTT PDIG        TELAPSE       42.40 TCPU       42.39
 CHARGE NORMALIZATION FACTOR   1.00000000
 TOTAL ATOMIC CHARGES:
  29.0122302  -0.0061151  -0.0061151
 TTTTTTTTTTTTTTTTTTTTTTTTTTTTTT MOQGAD      TELAPSE       42.40 TCPU       42.39
 TTTTTTTTTTTTTTTTTTTTTTTTTTTTTT SHELLXN     TELAPSE       44.67 TCPU       44.66
 TTTTTTTTTTTTTTTTTTTTTTTTTTTTTT MONMO3      TELAPSE       44.68 TCPU       44.67
 NUMERICALLY INTEGRATED DENSITY     28.9999247066
 TTTTTTTTTTTTTTTTTTTTTTTTTTTTTT NUMDFT      TELAPSE       45.70 TCPU       45.69
 CYC  13 ETOT(AU) -1.621571231589E+03 DETOT -1.95E-02 tst  8.00E-04 PX  1.84E-01
 TTTTTTTTTTTTTTTTTTTTTTTTTTTTTT DIIS        TELAPSE       45.70 TCPU       45.69
 DIIS TEST: 0.42110E-03 AT SCF   CYCLE  13 - DIIS ACTIVE - HISTORY:    13 CYCLES
 TTTTTTTTTTTTTTTTTTTTTTTTTTTTTT FDIK        TELAPSE       45.70 TCPU       45.69
 POSSIBLY CONDUCTING STATE - EFERMI(AU) -1.4510170E-01 (RES. CHARGE  1.64E-05;IT. 37)
 TTTTTTTTTTTTTTTTTTTTTTTTTTTTTT PDIG        TELAPSE       45.70 TCPU       45.69
 CHARGE NORMALIZATION FACTOR   0.99999887
 TOTAL ATOMIC CHARGES:
  29.0138537  -0.0069269  -0.0069268
 TTTTTTTTTTTTTTTTTTTTTTTTTTTTTT MOQGAD      TELAPSE       45.71 TCPU       45.69
 TTTTTTTTTTTTTTTTTTTTTTTTTTTTTT SHELLXN     TELAPSE       47.96 TCPU       47.95
 TTTTTTTTTTTTTTTTTTTTTTTTTTTTTT MONMO3      TELAPSE       47.97 TCPU       47.96
 NUMERICALLY INTEGRATED DENSITY     28.9999278524
 TTTTTTTTTTTTTTTTTTTTTTTTTTTTTT NUMDFT      TELAPSE       48.99 TCPU       48.98
 CYC  14 ETOT(AU) -1.621573939151E+03 DETOT -2.71E-03 tst  2.98E-04 PX  1.38E-01
 TTTTTTTTTTTTTTTTTTTTTTTTTTTTTT DIIS        TELAPSE       48.99 TCPU       48.98
 DIIS TEST: 0.10188E-04 AT SCF   CYCLE  14 - DIIS ACTIVE - HISTORY:    14 CYCLES
 TTTTTTTTTTTTTTTTTTTTTTTTTTTTTT FDIK        TELAPSE       49.00 TCPU       48.98
 POSSIBLY CONDUCTING STATE - EFERMI(AU) -1.4480882E-01 (RES. CHARGE  1.14E-10;IT. 10)
 TTTTTTTTTTTTTTTTTTTTTTTTTTTTTT PDIG        TELAPSE       49.00 TCPU       48.98
 CHARGE NORMALIZATION FACTOR   1.00000000
 TOTAL ATOMIC CHARGES:
  29.0138421  -0.0069211  -0.0069211
 TTTTTTTTTTTTTTTTTTTTTTTTTTTTTT MOQGAD      TELAPSE       49.00 TCPU       48.99
 TTTTTTTTTTTTTTTTTTTTTTTTTTTTTT SHELLXN     TELAPSE       51.27 TCPU       51.26
 TTTTTTTTTTTTTTTTTTTTTTTTTTTTTT MONMO3      TELAPSE       51.28 TCPU       51.27
 NUMERICALLY INTEGRATED DENSITY     28.9999277563
 TTTTTTTTTTTTTTTTTTTTTTTTTTTTTT NUMDFT      TELAPSE       52.30 TCPU       52.29
 CYC  15 ETOT(AU) -1.621577126366E+03 DETOT -3.19E-03 tst  2.67E-05 PX  1.58E-01
 TTTTTTTTTTTTTTTTTTTTTTTTTTTTTT DIIS        TELAPSE       52.30 TCPU       52.29
 DIIS TEST: 0.15455E-04 AT SCF   CYCLE  15 - DIIS ACTIVE - HISTORY:    15 CYCLES
 TTTTTTTTTTTTTTTTTTTTTTTTTTTTTT FDIK        TELAPSE       52.30 TCPU       52.29
 POSSIBLY CONDUCTING STATE - EFERMI(AU) -1.4480273E-01 (RES. CHARGE  9.72E-11;IT.  6)
 TTTTTTTTTTTTTTTTTTTTTTTTTTTTTT PDIG        TELAPSE       52.30 TCPU       52.29
 CHARGE NORMALIZATION FACTOR   1.00000000
 TOTAL ATOMIC CHARGES:
  29.0138431  -0.0069215  -0.0069216
 TTTTTTTTTTTTTTTTTTTTTTTTTTTTTT MOQGAD      TELAPSE       52.31 TCPU       52.29
 TTTTTTTTTTTTTTTTTTTTTTTTTTTTTT SHELLXN     TELAPSE       54.57 TCPU       54.56
 TTTTTTTTTTTTTTTTTTTTTTTTTTTTTT MONMO3      TELAPSE       54.58 TCPU       54.57
 NUMERICALLY INTEGRATED DENSITY     28.9999277567
 TTTTTTTTTTTTTTTTTTTTTTTTTTTTTT NUMDFT      TELAPSE       55.59 TCPU       55.58
 CYC  16 ETOT(AU) -1.621577135062E+03 DETOT -8.70E-06 tst  5.64E-09 PX  2.96E-04
 TTTTTTTTTTTTTTTTTTTTTTTTTTTTTT DIIS        TELAPSE       55.60 TCPU       55.58
 DIIS TEST: 0.15516E-04 AT SCF   CYCLE  16 - DIIS ACTIVE - HISTORY:    16 CYCLES
 TTTTTTTTTTTTTTTTTTTTTTTTTTTTTT FDIK        TELAPSE       55.60 TCPU       55.58
 POSSIBLY CONDUCTING STATE - EFERMI(AU) -1.4462822E-01 (RES. CHARGE  8.80E-10;IT. 12)
 TTTTTTTTTTTTTTTTTTTTTTTTTTTTTT PDIG        TELAPSE       55.60 TCPU       55.58
 CHARGE NORMALIZATION FACTOR   1.00000000
 TOTAL ATOMIC CHARGES:
  29.0138273  -0.0069136  -0.0069136
 TTTTTTTTTTTTTTTTTTTTTTTTTTTTTT MOQGAD      TELAPSE       55.60 TCPU       55.59
 TTTTTTTTTTTTTTTTTTTTTTTTTTTTTT SHELLXN     TELAPSE       57.87 TCPU       57.85
 TTTTTTTTTTTTTTTTTTTTTTTTTTTTTT MONMO3      TELAPSE       57.88 TCPU       57.86
 NUMERICALLY INTEGRATED DENSITY     28.9999277279
 TTTTTTTTTTTTTTTTTTTTTTTTTTTTTT NUMDFT      TELAPSE       58.89 TCPU       58.88
 CYC  17 ETOT(AU) -1.621577032332E+03 DETOT  1.03E-04 tst  6.34E-08 PX  3.38E-03
 TTTTTTTTTTTTTTTTTTTTTTTTTTTTTT DIIS        TELAPSE       58.89 TCPU       58.88
 DIIS TEST: 0.16701E-04 AT SCF   CYCLE  17 - DIIS ACTIVE - HISTORY:    17 CYCLES
 TTTTTTTTTTTTTTTTTTTTTTTTTTTTTT FDIK        TELAPSE       58.90 TCPU       58.88
 POSSIBLY CONDUCTING STATE - EFERMI(AU) -1.4385001E-01 (RES. CHARGE  3.20E-11;IT. 10)
 TTTTTTTTTTTTTTTTTTTTTTTTTTTTTT PDIG        TELAPSE       58.90 TCPU       58.88
 CHARGE NORMALIZATION FACTOR   1.00000000
 TOTAL ATOMIC CHARGES:
  29.0138229  -0.0069114  -0.0069114
 TTTTTTTTTTTTTTTTTTTTTTTTTTTTTT MOQGAD      TELAPSE       58.90 TCPU       58.89
 TTTTTTTTTTTTTTTTTTTTTTTTTTTTTT SHELLXN     TELAPSE       61.17 TCPU       61.15
 TTTTTTTTTTTTTTTTTTTTTTTTTTTTTT MONMO3      TELAPSE       61.17 TCPU       61.16
 NUMERICALLY INTEGRATED DENSITY     28.9999277111
 TTTTTTTTTTTTTTTTTTTTTTTTTTTTTT NUMDFT      TELAPSE       62.19 TCPU       62.17
 CYC  18 ETOT(AU) -1.621580333419E+03 DETOT -3.30E-03 tst  3.85E-05 PX  9.35E-02
 TTTTTTTTTTTTTTTTTTTTTTTTTTTTTT DIIS        TELAPSE       62.19 TCPU       62.17
 DIIS TEST: 0.18625E-04 AT SCF   CYCLE  18 - DIIS ACTIVE - HISTORY:    18 CYCLES
 TTTTTTTTTTTTTTTTTTTTTTTTTTTTTT FDIK        TELAPSE       62.19 TCPU       62.17
 POSSIBLY CONDUCTING STATE - EFERMI(AU) -1.4748964E-01 (RES. CHARGE  8.83E-10;IT. 10)
 TTTTTTTTTTTTTTTTTTTTTTTTTTTTTT PDIG        TELAPSE       62.19 TCPU       62.17
 CHARGE NORMALIZATION FACTOR   1.00000000
 TOTAL ATOMIC CHARGES:
  29.0140935  -0.0070468  -0.0070467
 TTTTTTTTTTTTTTTTTTTTTTTTTTTTTT MOQGAD      TELAPSE       62.19 TCPU       62.18
 TTTTTTTTTTTTTTTTTTTTTTTTTTTTTT SHELLXN     TELAPSE       64.46 TCPU       64.44
 TTTTTTTTTTTTTTTTTTTTTTTTTTTTTT MONMO3      TELAPSE       64.47 TCPU       64.45
 NUMERICALLY INTEGRATED DENSITY     28.9999282172
 TTTTTTTTTTTTTTTTTTTTTTTTTTTTTT NUMDFT      TELAPSE       65.49 TCPU       65.47
 CYC  19 ETOT(AU) -1.621578992827E+03 DETOT  1.34E-03 tst  2.72E-05 PX  3.07E-02
 TTTTTTTTTTTTTTTTTTTTTTTTTTTTTT DIIS        TELAPSE       65.49 TCPU       65.47
 DIIS TEST: 0.47567E-05 AT SCF   CYCLE  19 - DIIS ACTIVE - HISTORY:    19 CYCLES
 TTTTTTTTTTTTTTTTTTTTTTTTTTTTTT FDIK        TELAPSE       65.49 TCPU       65.47
 POSSIBLY CONDUCTING STATE - EFERMI(AU) -1.4830880E-01 (RES. CHARGE  3.36E-11;IT. 10)
 TTTTTTTTTTTTTTTTTTTTTTTTTTTTTT PDIG        TELAPSE       65.49 TCPU       65.47
 CHARGE NORMALIZATION FACTOR   1.00000000
 TOTAL ATOMIC CHARGES:
  29.0141457  -0.0070729  -0.0070728
 TTTTTTTTTTTTTTTTTTTTTTTTTTTTTT MOQGAD      TELAPSE       65.49 TCPU       65.48
 TTTTTTTTTTTTTTTTTTTTTTTTTTTTTT SHELLXN     TELAPSE       67.76 TCPU       67.75

 ::: DIPOLE MOMENT ALONG NON PERIODIC DIRECTIONS:
 ::: A.U.     (Z)  3.97216E-06
 ::: DEBYE        -1.00962E-05

 +++ ENERGIES IN A.U. +++
 ::: EXT EL-POLE                                  -5.9739165391336E+02
 ::: EXT EL-SPHEROPOLE                             0.0000000000000E+00
 ::: BIELET ZONE E-E                               9.1399109375690E+02
 ::: TOTAL E-E                                     3.1659943984354E+02
 ::: TOTAL E-N + N-E                              -3.1321116245433E+03
 ::: TOTAL N-N                                    -3.6614845510141E+02
 ::: KINETIC ENERGY                                1.6136468931393E+03
 ::: PSEUDO TOTAL   ENERGY                        -1.5680137466619E+03
 ::: VIRIAL COEFFICIENT                            1.0143425561817E+00
 TTTTTTTTTTTTTTTTTTTTTTTTTTTTTT MONMO3      TELAPSE       67.78 TCPU       67.76
 NUMERICALLY INTEGRATED DENSITY     28.9999281151
 TTTTTTTTTTTTTTTTTTTTTTTTTTTTTT NUMDFT      TELAPSE       68.79 TCPU       68.77
 CYC  20 ETOT(AU) -1.621574868501E+03 DETOT  4.12E-03 tst  9.19E-05 PX  3.07E-02

 == SCF ENDED - TOO MANY CYCLES            E(AU) -1.6215748685013E+03 CYCLES  20


 ENERGY EXPRESSION=HARTREE+FOCK EXCH*0.20000+(BECKE      EXCH)*0.80000+LYP        CORR


 TOTAL ENERGY(DFT)(AU)( 20) -1.6215748685013E+03 DE 4.1E-03 tester 9.2E-05
 TTTTTTTTTTTTTTTTTTTTTTTTTTTTTT EDFT        TELAPSE       68.79 TCPU       68.77
 EIGENVECTORS IN FORTRAN UNIT  8
 TTTTTTTTTTTTTTTTTTTTTTTTTTTTTT END         TELAPSE       68.80 TCPU       68.78
 EEEEEEEEEE TERMINATION  DATE 15 02 2022 TIME 13:59:19.8
Tue 15 Feb 2022 13:59:19 GMT
Contents of temporary directory:
total 1776
-rw-r--r--  1 brunocamino  admin  131200 15 Feb 13:59 diis_Fg
-rw-r--r--  1 brunocamino  admin   56736 15 Feb 13:59 diis_Fia1
-rw-r--r--  1 brunocamino  admin   59888 15 Feb 13:59 diis_Fia2
-rw-r--r--  1 brunocamino  admin       0 15 Feb 13:58 diis_Sk
-rw-r--r--  1 brunocamino  admin   52120 15 Feb 13:59 fort.10
-rw-r--r--  1 brunocamino  admin    6560 15 Feb 13:59 fort.11
-rw-r--r--  1 brunocamino  admin    1881 15 Feb 13:58 fort.34
-rw-r--r--  1 brunocamino  admin    8704 15 Feb 13:58 fort.61
-rw-r--r--  1 brunocamino  admin    5240 15 Feb 13:58 fort.62
-rw-r--r--  1 brunocamino  admin   52120 15 Feb 13:59 fort.8
-rw-r--r--  1 brunocamino  admin  122828 15 Feb 13:59 fort.9
-rw-r--r--  1 brunocamino  admin   16544 15 Feb 13:59 fort.95
-rw-r--r--  1 brunocamino  admin  312371 15 Feb 13:59 fort.98
wave function binary file /Users/brunocamino/Desktop/Imperial/cmsg_icl/ml-surface-adsorption/data/Cu_O_100_3_BSSE_sub.f9
file fort.98 saved as /Users/brunocamino/Desktop/Imperial/cmsg_icl/ml-surface-adsorption/data/Cu_O_100_3_BSSE_sub.f98
geometry input file fort.34 saved as /Users/brunocamino/Desktop/Imperial/cmsg_icl/ml-surface-adsorption/data/Cu_O_100_3_BSSE_sub.gui
temporary directory /Users/brunocamino/crystal/tmp removed
