date Tue 15 Feb 2022 09:11:20 GMT
hostname MacBook-Pro-3.local
system Darwin MacBook-Pro-3.local 21.3.0 Darwin Kernel Version 21.3.0: Wed Jan 5 21:37:58 PST 2022; root:xnu-8019.80.24~20/RELEASE_ARM64_T8101 arm64
user brunocamino
output data in /Users/brunocamino/Desktop/Imperial/cmsg_icl/ml-surface-adsorption/data/Cu_O_100_6.out
crystal executable in /Users/brunocamino/crystal
input data in /Users/brunocamino/Desktop/Imperial/cmsg_icl/ml-surface-adsorption/data/Cu_O_100_6.d12
temporary directory /Users/brunocamino/crystal/tmp
external geometry input from /Users/brunocamino/Desktop/Imperial/cmsg_icl/ml-surface-adsorption/data/Cu_O_100_6.gui
external geometry input saved in /Users/brunocamino/Desktop/Imperial/cmsg_icl/ml-surface-adsorption/data/Cu_O_100_6_inp.gui
Adsorption tests
EXTERNAL
EXTPRT
BASISSET
STO-3G
DFT
B3LYP
XXLGRID
ENDDFT
TOLINTEG
5 5 5 5 10
SHRINK
6 12
MAXCYCLE
20
FMIXING
70
DIIS
ENDSCF

         
 *******************************************************************************
 *                                                                             *
 *                               CRYSTAL17                                     *
 *                      public : 1.0.2 - March 1st, 2018                       *
 *                       HTTP://WWW.CRYSTAL.UNITO.IT                           *
 *                                                                             *
 *                              MAIN AUTHORS                                   *
 *                                                                             *
 *  R. DOVESI(1,11), V.R. SAUNDERS(2), C. ROETTI(1,11), R. ORLANDO(1,11),      *
 *  C.M. ZICOVICH-WILSON(1,3), F. PASCALE(4), B. CIVALLERI(1,11),              *
 *  K. DOLL(5), N.M. HARRISON(2,6), I.J. BUSH(7), Ph. D'ARCO(8),               *
 *  M. LLUNELL(9), M. CAUSA'(10), Y. NOEL(8), L. MASCHIO(1,11), A. ERBA(1,11)  *
 *  M. RE'RAT(14), S. CASASSA(1,11)                                            *
 *                                                                             *
 *        CONTRIBUTIONS TO THE CODE HAVE ALSO BEEN GIVEN BY                    *
 *                                                                             *
 *  M. FERRABONE(1,11), M. DE LA PIERRE(1,11), M. FERRERO(1,11),               *
 *  J. BAIMA(1,11), E. ALBANESE(1,11), M.F. PEINTINGER(12), R. BAST(13),       *
 *  B. KIRTMAN(15), V. LACIVITA(1,11), R. DEMICHELIS(1,16)                     *
 *  G. BRANDEBURG(17), S. SALUSTRO(1,11), G. SANSONE(1,11)                     *
 *  M.T. RUGGIERO(18)                                                          *
 *                                                                             *
 * (1) THEORETICAL CHEMISTRY GROUP - UNIVERSITA' DI TORINO - TORINO (ITALY)    *
 * (2) COMPUTATIONAL SCIENCE & ENGINEERING DEPARTMENT - STFC DARESBURY (UK)    *
 * (3) UNIVERSIDAD AUTONOMA DEL ESTADO DE MORELOS - CUERNAVACA (MEXICO)        *
 * (4) UNIVERSITE' DE LORRAINE - NANCY (FRANCE)                                *
 * (5) UNIVERSITAET STUTTGART- STUTTGART (GERMANY)                             *
 * (6) IMPERIAL COLLEGE - LONDON (UK)                                          *
 * (7) OXFORD E-RESEARCH CENTRE - OXFORD (UK)                                  *
 * (8) UPMC - SORBONNE UNIVERSITES - PARIS (FRANCE)                            *
 * (9) UNIVERSIDAD DE BARCELONA - BARCELONA (SPAIN)                            *
 *(10) UNIVERSITA' DI NAPOLI "FEDERICO II" - NAPOLI (ITALY)                    *
 *(11) NIS - NANOSTRUCTURED INTERFACES AND SURFACES - TORINO (ITALY)           *
 *(12) MPI FUER CHEMISCHE ENERGIEKONVERSION - MUELHEIM AN DER RUHR (GERMANY)   *
 *(13) UNIVERSITY OF TROMSO - TROMSO (NORWAY)                                  *
 *(14) UNIVERSITE' DE PAU ET DES PAYS DE L'ADOUR - PAU (FRANCE)                *
 *(15) UNIVERSITY OF CALIFORNIA SANTA BARBARA - SANTA BARBARA (USA)            *
 *(16) CURTIN UNIVERSITY - PERTH (AUSTRALIA)                                   *
 *(17) UNIVERSITY COLLEGE LONDON - LONDON (UK)                                 *
 *(18) CAMBRIDGE UNIVERSITY - CAMBRIDGE (UK)                                   *
 *                                                                             *
 *******************************************************************************
 EEEEEEEEEE STARTING  DATE 15 02 2022 TIME 09:11:20.4
 Adsorption tests                                                                

 GEOMETRY INPUT FROM EXTERNAL FILE (FORTRAN UNIT 34)
 2D - SLAB    

 *******************************************************************************
 LATTICE PARAMETERS  (ANGSTROMS AND DEGREES) - PRIMITIVE CELL
       A          B          C        ALPHA      BETA     GAMMA        VOLUME
    2.56062    3.62126  500.00000    90.00000  90.00000  90.00000      9.272672
 INFORMATION **** CHKGRP **** SPGR WITH NO INVERSION

 NUMBER OF IRREDUCIBLE ATOMS IN THE CELL:    4

 CARTESIAN COORDINATES (ANGSTROM) - IRREDUCIBLE ATOMS AND SYMMETRY RELATED

 AT.IRR.  AT  AT.N.          X                   Y                   Z
     1     1    29    1.920460000000E+00  0.000000000000E+00  1.920460000000E+00
     1     2    29    6.401589166532E-01  0.000000000000E+00  1.920460000000E+00
     3     3    29    6.401500000000E-01  1.810630000000E+00  6.401500000000E-01
     3     4    29   -6.401500000000E-01 -1.810630000000E+00  6.401500000000E-01
     5     5     8    1.920460000000E+00  0.000000000000E+00 -1.359850000000E+00
     5     6     8    6.401589166532E-01  0.000000000000E+00 -1.359850000000E+00
     7     7     8    6.401500000000E-01  1.810630000000E+00  3.920460000000E+00
     7     8     8   -6.401500000000E-01 -1.810630000000E+00  3.920460000000E+00

 SYMMETRY CHANGED DURING OLD RUN :  INFORMATION ON SPACE GROUP LOST 
 NUMBER OF SYMMETRY OPERATORS         :    4
 *******************************************************************************
 LATTICE PARAMETERS (ANGSTROMS AND DEGREES) - BOHR = 0.5291772083 ANGSTROM
 PRIMITIVE CELL
         A              B              C           ALPHA      BETA       GAMMA 
     2.56061892     3.62126200   500.00000000    90.000000  90.000000  90.000000
 *******************************************************************************
 ATOMS IN THE ASYMMETRIC UNIT    4 - ATOMS IN THE UNIT CELL:    8
     ATOM                 X/A                 Y/B             Z(ANGSTROM)
 *******************************************************************************
      1 T  29 CU   -2.500016353429E-01  0.000000000000E+00  1.920460000000E+00
      2 F  29 CU    2.500016353429E-01  0.000000000000E+00  1.920460000000E+00
      3 T  29 CU    2.499981531171E-01  4.999997238532E-01  6.401500000000E-01
      4 F  29 CU   -2.499981531171E-01 -4.999997238532E-01  6.401500000000E-01
      5 T   8 O    -2.500016353429E-01  0.000000000000E+00 -1.359850000000E+00
      6 F   8 O     2.500016353429E-01  0.000000000000E+00 -1.359850000000E+00
      7 T   8 O     2.499981531171E-01  4.999997238532E-01  3.920460000000E+00
      8 F   8 O    -2.499981531171E-01 -4.999997238532E-01  3.920460000000E+00

 T = ATOM BELONGING TO THE ASYMMETRIC UNIT
 *******************************************************************************
 * GEOMETRY EDITING - INPUT COORDINATES ARE GIVEN IN ANGSTROM         
 *******************************************************************************

 GEOMETRY NOW FULLY CONSISTENT WITH THE GROUP

 GCALCO - MAX INDICES DIRECT LATTICE VECTOR    98    69     0
 NO.OF VECTORS CREATED 6999 STARS 1080 RMAX   271.49459 BOHR

 GEOMETRY FOR WAVE FUNCTION - DIMENSIONALITY OF THE SYSTEM    2
 (NON PERIODIC DIRECTION: LATTICE PARAMETER FORMALLY SET TO 500)
 *******************************************************************************
 LATTICE PARAMETERS (ANGSTROMS AND DEGREES) - BOHR = 0.5291772083 ANGSTROM
 PRIMITIVE CELL
         A              B              C           ALPHA      BETA       GAMMA 
     2.56061892     3.62126200   500.00000000    90.000000  90.000000  90.000000
 *******************************************************************************
 ATOMS IN THE ASYMMETRIC UNIT    4 - ATOMS IN THE UNIT CELL:    8
     ATOM                 X/A                 Y/B             Z(ANGSTROM)
 *******************************************************************************
      1 T  29 CU   -2.500016353429E-01  0.000000000000E+00  1.920460000000E+00
      2 F  29 CU    2.500016353429E-01  0.000000000000E+00  1.920460000000E+00
      3 T  29 CU    2.499981531171E-01 -5.000000000000E-01  6.401500000000E-01
      4 F  29 CU   -2.499981531171E-01 -5.000000000000E-01  6.401500000000E-01
      5 T   8 O    -2.500016353429E-01  0.000000000000E+00 -1.359850000000E+00
      6 F   8 O     2.500016353429E-01  0.000000000000E+00 -1.359850000000E+00
      7 T   8 O     2.499981531171E-01 -5.000000000000E-01  3.920460000000E+00
      8 F   8 O    -2.499981531171E-01 -5.000000000000E-01  3.920460000000E+00

 T = ATOM BELONGING TO THE ASYMMETRIC UNIT

 ****    4 SYMMOPS - TRANSLATORS IN FRACTIONAL UNITS
 **** MATRICES AND TRANSLATORS IN THE CRYSTALLOGRAPHIC REFERENCE FRAME
   V INV                    ROTATION MATRICES                   TRANSLATORS
   1   1  1.00  0.00  0.00  0.00  1.00  0.00  0.00  0.00  1.00  0.00  0.00  0.00
   2   2 -1.00  0.00  0.00  0.00 -1.00  0.00  0.00  0.00  1.00  0.00  0.00  0.00
   3   3 -1.00  0.00  0.00  0.00  1.00  0.00  0.00  0.00  1.00  0.00  0.00  0.00
   4   4  1.00 -0.00  0.00  0.00 -1.00  0.00  0.00  0.00  1.00  0.00  0.00  0.00

 DIRECT LATTICE VECTORS CARTESIAN COMPONENTS (ANGSTROM)
          X                    Y                    Z
   0.256061891665E+01   0.000000000000E+00   0.000000000000E+00
  -0.221738345859E-15   0.362126200000E+01   0.000000000000E+00
   0.000000000000E+00   0.000000000000E+00   0.500000000000E+03


 CARTESIAN COORDINATES - PRIMITIVE CELL
 *******************************************************************************
 *      ATOM          X(ANGSTROM)         Y(ANGSTROM)         Z(ANGSTROM)
 *******************************************************************************
    1    29 CU    1.920460000000E+00  0.000000000000E+00  1.920460000000E+00
    2    29 CU    6.401589166532E-01  0.000000000000E+00  1.920460000000E+00
    3    29 CU    6.401500000000E-01  1.810631000000E+00  6.401500000000E-01
    4    29 CU   -6.401500000000E-01  1.810631000000E+00  6.401500000000E-01
    5     8 O     1.920460000000E+00  0.000000000000E+00 -1.359850000000E+00
    6     8 O     6.401589166532E-01  0.000000000000E+00 -1.359850000000E+00
    7     8 O     6.401500000000E-01  1.810631000000E+00  3.920460000000E+00
    8     8 O    -6.401500000000E-01  1.810631000000E+00  3.920460000000E+00

 *******************************************************************************
 STARTING BASIS SET HANDLING 
 *******************************************************************************

 Loading internal basis set: STO-3G              

 Please cite in your publication:
 H - Ne: W.J. Hehre, R.F. Stewart and J.A. Pople, J. Chem. Phys. 2657 (1969).   
                                                                                
                                                                                
                    
 Na - Ar: W.J. Hehre, R. Ditchfield, R.F. Stewart, J.A. Pople, J. Chem. Phys.  2
 769 (1970).                                                                    
                                                                                
                    
 K,Ca: W.J. Pietro, B.A. Levy, W.J. Hehre and R.F. Stewart, Inorg. Chem., 1980, 
 19 (8), pp 2225-2229                                                           
                                                                                
                    
 Ga-Kr: J. Am. Chem. Soc. 19, 2225 (1980).                                      
                                                                                
                                                                                
                    
 Sc-Zn, Y-Cd: W.J. Pietro and W.J. Hehre, J. Comp. Chem. 4, 241 (1983).         
                                                                                
                                                                                
                    

 *******************************************************************************
 LOCAL ATOMIC FUNCTIONS BASIS SET
 *******************************************************************************
   ATOM   X(AU)   Y(AU)   Z(AU)  N. TYPE  EXPONENT  S COEF   P COEF   D/F/G COEF
 *******************************************************************************
   1 CU   3.629   0.000   3.629
                                  1 S  
                                         1.802E+03 1.543E-01 0.000E+00 0.000E+00
                                         3.282E+02 5.353E-01 0.000E+00 0.000E+00
                                         8.882E+01 4.446E-01 0.000E+00 0.000E+00
                                  2 S  
                                         1.441E+02-9.997E-02 0.000E+00 0.000E+00
                                         3.349E+01 3.995E-01 0.000E+00 0.000E+00
                                         1.089E+01 7.001E-01 0.000E+00 0.000E+00
                                  3 S  
                                         1.131E+01-2.278E-01 0.000E+00 0.000E+00
                                         3.449E+00 2.175E-01 0.000E+00 0.000E+00
                                         1.331E+00 9.167E-01 0.000E+00 0.000E+00
                                  4 S  
                                         6.309E-01-3.088E-01 0.000E+00 0.000E+00
                                         2.329E-01 1.961E-02 0.000E+00 0.000E+00
                                         1.028E-01 1.131E+00 0.000E+00 0.000E+00
                           5-     7 P  
                                         1.441E+02 0.000E+00 1.559E-01 0.000E+00
                                         3.349E+01 0.000E+00 6.077E-01 0.000E+00
                                         1.089E+01 0.000E+00 3.920E-01 0.000E+00
                           8-    10 P  
                                         1.131E+01 0.000E+00 4.952E-03 0.000E+00
                                         3.449E+00 0.000E+00 5.778E-01 0.000E+00
                                         1.331E+00 0.000E+00 4.846E-01 0.000E+00
                          11-    13 P  
                                         6.309E-01 0.000E+00-1.215E-01 0.000E+00
                                         2.329E-01 0.000E+00 5.715E-01 0.000E+00
                                         1.028E-01 0.000E+00 5.499E-01 0.000E+00
                          14-    18 D  
                                         9.648E+00 0.000E+00 0.000E+00 2.198E-01
                                         2.943E+00 0.000E+00 0.000E+00 6.555E-01
                                         1.135E+00 0.000E+00 0.000E+00 2.866E-01
   2 CU   1.210   0.000   3.629
   3 CU   1.210   3.422   1.210
   4 CU  -1.210   3.422   1.210
   5 O    3.629   0.000  -2.570
                                 73 S  
                                         1.307E+02 1.543E-01 0.000E+00 0.000E+00
                                         2.381E+01 5.353E-01 0.000E+00 0.000E+00
                                         6.444E+00 4.446E-01 0.000E+00 0.000E+00
                                 74 S  
                                         5.033E+00-9.997E-02 0.000E+00 0.000E+00
                                         1.170E+00 3.995E-01 0.000E+00 0.000E+00
                                         3.804E-01 7.001E-01 0.000E+00 0.000E+00
                          75-    77 P  
                                         5.033E+00 0.000E+00 1.559E-01 0.000E+00
                                         1.170E+00 0.000E+00 6.077E-01 0.000E+00
                                         3.804E-01 0.000E+00 3.920E-01 0.000E+00
   6 O    1.210   0.000  -2.570
   7 O    1.210   3.422   7.409
   8 O   -1.210   3.422   7.409

 *******************************************************************************
 FINISHED BASIS SET HANDLING 
 *******************************************************************************

 INFORMATION **** SET_MPP **** PCRYSTAL CALCULATION
 INFORMATION **** READM2 **** NEW DEFAULT: FOCK/KS MATRIX MIXING SET TO 30 %
 INFORMATION **** READM2 **** NEW DEFAULT: FULL DIRECT SCF MODE
 INFORMATION **** READM2 **** NEW DEFAULT: COULOMB BIPOLAR BUFFER SET TO 32 Mb
 INFORMATION **** READM2 **** NEW DEFAULT: EXCHANGE BIPOLAR BUFFER SET TO 32 Mb

 *******************************************************************************
 NEW DEFAULT: DFT INTEGRATION GRID INCREASED TO XLGRID
 NEW DEFAULT: DIIS ACCELERATOR ACTIVE
 USE KEYWORD NODIIS TO TURN IT OFF
 *******************************************************************************

 INFORMATION **** TOLINTEG **** COULOMB AND EXCHANGE SERIES TOLERANCES MODIFIED
 INFORMATION **** MAXCYCLE **** MAX NUMBER OF SCF CYCLES SET TO          20
 INFORMATION **** DIIS **** DIIS FOR SCF ACTIVE
 INFORMATION **** DIIS **** LEVEL SHIFTER DISABLED
 *******************************************************************************
 N. OF ATOMS PER CELL         8  COULOMB OVERLAP TOL         (T1) 10**   -5
 NUMBER OF SHELLS            44  COULOMB PENETRATION TOL     (T2) 10**   -5
 NUMBER OF AO                92  EXCHANGE OVERLAP TOL        (T3) 10**   -5
 N. OF ELECTRONS PER CELL   148  EXCHANGE PSEUDO OVP (F(G))  (T4) 10**   -5
 CORE ELECTRONS PER CELL     80  EXCHANGE PSEUDO OVP (P(G))  (T5) 10**  -10
 N. OF SYMMETRY OPERATORS     4  POLE ORDER IN MONO ZONE                  4
 *******************************************************************************
 TYPE OF CALCULATION :  RESTRICTED CLOSED SHELL
 KOHN-SHAM HAMILTONIAN

 (EXCHANGE)[CORRELATION] FUNCTIONAL:(BECKE 88)[LEE-YANG-PARR]

 NON-LOCAL WEIGHTING FACTOR (EXCHANGE) =           0.9000
 NON-LOCAL WEIGHTING FACTOR [CORRELATION] =        0.8100

 HYBRID EXCHANGE - PERCENTAGE OF FOCK EXCHANGE    20.0000

 CAPPA:IS1  6;IS2  6;IS3  1; K PTS MONK NET  16; SYMMOPS:K SPACE   8;G SPACE   4

 *******************************************************************************
 MAX NUMBER OF SCF CYCLES      20  CONVERGENCE ON DELTAP        10**-16
 WEIGHT OF F(I) IN F(I+1)      70% CONVERGENCE ON ENERGY        10**- 6
 SHRINK. FACT.(MONKH.)    6  6  1  NUMBER OF K POINTS IN THE IBZ     16
 SHRINKING FACTOR(GILAT NET)   12  NUMBER OF K POINTS(GILAT NET)     49
 *******************************************************************************
 *** K POINTS COORDINATES (OBLIQUE COORDINATES IN UNITS OF IS =  6)
   1-R(  0  0  0)   2-C(  1  0  0)   3-C(  2  0  0)   4-R(  3  0  0)
   5-C(  0  1  0)   6-C(  1  1  0)   7-C(  2  1  0)   8-C(  3  1  0)
   9-C(  0  2  0)  10-C(  1  2  0)  11-C(  2  2  0)  12-C(  3  2  0)
  13-R(  0  3  0)  14-C(  1  3  0)  15-C(  2  3  0)  16-R(  3  3  0)

 DIRECT LATTICE VECTORS COMPON. (A.U.)     RECIP. LATTICE VECTORS COMPON. (A.U.) 
        X            Y            Z              X            Y            Z
    4.8388685    0.0000000    0.0000000      1.2984823    0.0000000    0.0000000
   -0.0000000    6.8431934    0.0000000      0.0000000    0.9181657    0.0000000
    0.0000000    0.0000000  944.8630670      0.0000000    0.0000000    0.0066498

 DISK SPACE FOR EIGENVECTORS (FTN 10)      236992 REALS

 SYMMETRY ADAPTION OF THE BLOCH FUNCTIONS ENABLED
 TTTTTTTTTTTTTTTTTTTTTTTTTTTTTT gordsh1     TELAPSE        0.01 TCPU        0.01

 MATRIX SIZE: P(G)   77604, F(G)   17608, P(G) IRR   12337, F(G) IRR    5951
 MAX G-VECTOR INDEX FOR 1- AND 2-ELECTRON INTEGRALS  65

 TTTTTTTTTTTTTTTTTTTTTTTTTTTTTT INPUT       TELAPSE        0.01 TCPU        0.01

 NEIGHBORS OF THE NON-EQUIVALENT ATOMS

 N = NUMBER OF NEIGHBORS AT DISTANCE R
    ATOM  N     R/ANG      R/AU   NEIGHBORS (ATOM LABELS AND CELL INDICES)
   1 CU   1     1.2803     2.4194    2 CU   0 0 0
   1 CU   1     1.2803     2.4195    2 CU   1 0 0
   1 CU   2     2.2176     4.1906    4 CU   1-1 0    4 CU   1 0 0
   1 CU   4     2.5606     4.8389    1 CU  -1 0 0    1 CU   1 0 0    3 CU   1 0 0
                                     3 CU   1-1 0
   1 CU   2     2.5606     4.8389    3 CU   0 0 0    3 CU   0-1 0
   1 CU   2     2.6978     5.0982    8 O    1 0 0    8 O    1-1 0

   3 CU   1     1.2803     2.4194    4 CU   0 0 0
   3 CU   1     1.2803     2.4195    4 CU   1 0 0
   3 CU   2     2.2176     4.1906    2 CU   0 0 0    2 CU   0 1 0
   3 CU   4     2.5606     4.8389    1 CU  -1 0 0    1 CU  -1 1 0    3 CU  -1 0 0
                                     3 CU   1 0 0
   3 CU   2     2.5606     4.8389    1 CU   0 0 0    1 CU   0 1 0
   3 CU   2     2.6978     5.0982    6 O    0 1 0    6 O    0 0 0

   5 O    1     1.2803     2.4194    6 O    0 0 0
   5 O    1     1.2803     2.4195    6 O    1 0 0
   5 O    2     2.5606     4.8389    5 O   -1 0 0    5 O    1 0 0
   5 O    2     2.6978     5.0982    4 CU   1 0 0    4 CU   1-1 0
   5 O    2     2.9862     5.6432    3 CU   1 0 0    3 CU   1-1 0
   5 O    2     2.9862     5.6432    3 CU   0 0 0    3 CU   0-1 0

   7 O    1     1.2803     2.4194    8 O    0 0 0
   7 O    1     1.2803     2.4195    8 O    1 0 0
   7 O    2     2.5606     4.8389    7 O   -1 0 0    7 O    1 0 0
   7 O    2     2.6978     5.0982    2 CU   0 1 0    2 CU   0 0 0
   7 O    2     2.9862     5.6432    1 CU  -1 0 0    1 CU  -1 1 0
   7 O    2     2.9862     5.6432    1 CU   0 0 0    1 CU   0 1 0


 SYMMETRY ALLOWED INTERNAL DEGREE(S) OF FREEDOM:   7
 TTTTTTTTTTTTTTTTTTTTTTTTTTTTTT SYMM        TELAPSE        0.01 TCPU        0.01
 TTTTTTTTTTTTTTTTTTTTTTTTTTTTTT INT_SCREEN  TELAPSE        0.01 TCPU        0.01
 INFORMATION **** EXCBUF **** EXCH. BIPO BUFFER: WORDS USED =      370314

 DFT PARAMETERS

     ATOM       ELECTRONS   NET CHARGE   R(ANGSTROM)
   1  29  CU     29.0000      0.0000     1.28000000
   5   8  O       8.0000      0.0000     0.74000000

 SIZE OF GRID=      99928
 TTTTTTTTTTTTTTTTTTTTTTTTTTTTTT MAKE_GRID2  TELAPSE        1.88 TCPU        1.86
 BECKE WEIGHT FUNCTION
 RADSAFE =     2.00
 TOLERANCES - DENSITY:10**- 6; POTENTIAL:10**- 9; GRID WGT:10**-14

 RADIAL INTEGRATION  - INTERVALS (POINTS,UPPER LIMIT):            1( 99,  4.0*R)

 ANGULAR INTEGRATION - INTERVALS (ACCURACY LEVEL [N. POINTS] UPPER LIMIT):
  1(  6[ 146]   0.2)  2( 11[ 302]   0.5)  3( 14[ 590]   0.9)  4( 18[1454]   3.5)
  5( 14[ 590]9999.0)
 TTTTTTTTTTTTTTTTTTTTTTTTTTTTTT INT_CALC    TELAPSE        1.88 TCPU        1.86
 EEEEEEEEEE INT_CALC TERMINATION  DATE 15 02 2022 TIME 09:11:22.3

 *******************************************************************************
 Adsorption tests                                                                
 CRYSTAL - SCF - TYPE OF CALCULATION :  RESTRICTED CLOSED SHELL
 *******************************************************************************

 CAPPA:IS1  6;IS2  6;IS3  1; K PTS MONK NET  16; SYMMOPS:K SPACE   8;G SPACE   4

 TTTTTTTTTTTTTTTTTTTTTTTTTTTTTT SDIK        TELAPSE        1.89 TCPU        1.88

 AAAAAAAAAAAAAAAAAAAAAAAAAAAAAAAAAAAAAAAAAAAAAAAAAAAAAAAAAAAAAAAAAAAAAAAAAAAAAAA
         ATOMIC WAVEFUNCTION(S)


 NUCLEAR CHARGE 29.0  SYMMETRY SPECIES            S    P    D
 N. ELECTRONS   29.0  NUMBER OF PRIMITIVE GTOS   12    9    3
                      NUMBER OF CONTRACTED GTOS   4    3    1
                      NUMBER OF CLOSED SHELLS     4    2    0
                      OPEN SHELL OCCUPATION       0    0    9

  ZNUC SCFIT  TOTAL HF ENERGY   KINETIC ENERGY   VIRIAL THEOREM ACCURACY
  29.0   5   -1.619844227E+03  1.626147454E+03 -1.996123828E+00  5.2E-07

 NUCLEAR CHARGE  8.0  SYMMETRY SPECIES            S    P
 N. ELECTRONS    8.0  NUMBER OF PRIMITIVE GTOS    6    3
                      NUMBER OF CONTRACTED GTOS   2    1
                      NUMBER OF CLOSED SHELLS     2    0
                      OPEN SHELL OCCUPATION       0    4

  ZNUC SCFIT  TOTAL HF ENERGY   KINETIC ENERGY   VIRIAL THEOREM ACCURACY
   8.0   1   -7.380415023E+01  7.344495887E+01 -2.004890620E+00  0.0E+00

 AAAAAAAAAAAAAAAAAAAAAAAAAAAAAAAAAAAAAAAAAAAAAAAAAAAAAAAAAAAAAAAAAAAAAAAAAAAAAAA

 CHARGE NORMALIZATION FACTOR   1.00000000
 TOTAL ATOMIC CHARGES:
  29.0000000  29.0000000  29.0000000  29.0000000   8.0000000   8.0000000
   8.0000000   8.0000000
 TTTTTTTTTTTTTTTTTTTTTTTTTTTTTT MOQGAD      TELAPSE        1.93 TCPU        1.92
 TTTTTTTTTTTTTTTTTTTTTTTTTTTTTT SHELLXN     TELAPSE       67.84 TCPU       67.39
 TTTTTTTTTTTTTTTTTTTTTTTTTTTTTT MONMO3      TELAPSE       68.01 TCPU       67.56
 NUMERICALLY INTEGRATED DENSITY    147.9999786697
 TTTTTTTTTTTTTTTTTTTTTTTTTTTTTT NUMDFT      TELAPSE       69.98 TCPU       69.53
 CYC   0 ETOT(AU) -6.786465029862E+03 DETOT -6.79E+03 tst  0.00E+00 PX  1.00E+00
 TTTTTTTTTTTTTTTTTTTTTTTTTTTTTT DIIS        TELAPSE       69.99 TCPU       69.53
 TTTTTTTTTTTTTTTTTTTTTTTTTTTTTT FDIK        TELAPSE       70.03 TCPU       69.58
 POSSIBLY CONDUCTING STATE - EFERMI(AU)  5.4474693E-01 (RES. CHARGE  4.53E-11;IT. 10)
 TTTTTTTTTTTTTTTTTTTTTTTTTTTTTT PDIG        TELAPSE       70.05 TCPU       69.59
 CHARGE NORMALIZATION FACTOR   1.00000000
 TOTAL ATOMIC CHARGES:
  27.7277738  27.7277738  27.7277739  27.7277739   9.2722262   9.2722262
   9.2722261   9.2722261
 TTTTTTTTTTTTTTTTTTTTTTTTTTTTTT MOQGAD      TELAPSE       70.07 TCPU       69.62
 TTTTTTTTTTTTTTTTTTTTTTTTTTTTTT SHELLXN     TELAPSE      136.72 TCPU      136.12
 TTTTTTTTTTTTTTTTTTTTTTTTTTTTTT MONMO3      TELAPSE      136.89 TCPU      136.29
 NUMERICALLY INTEGRATED DENSITY    147.9990606803
 TTTTTTTTTTTTTTTTTTTTTTTTTTTTTT NUMDFT      TELAPSE      142.15 TCPU      141.55
 CYC   1 ETOT(AU) -6.415495452159E+03 DETOT  3.71E+02 tst  0.00E+00 PX  1.00E+00
 TTTTTTTTTTTTTTTTTTTTTTTTTTTTTT DIIS        TELAPSE      142.16 TCPU      141.55
 DIIS TEST: 0.19858E+02 AT SCF   CYCLE   1 - MIX   70 %
 TTTTTTTTTTTTTTTTTTTTTTTTTTTTTT FDIK        TELAPSE      142.18 TCPU      141.57
 POSSIBLY CONDUCTING STATE - EFERMI(AU) -6.1720447E-01 (RES. CHARGE  6.91E-11;IT. 10)
 TTTTTTTTTTTTTTTTTTTTTTTTTTTTTT PDIG        TELAPSE      142.19 TCPU      141.58
 CHARGE NORMALIZATION FACTOR   1.00000000
 TOTAL ATOMIC CHARGES:
  33.1149527  33.1149527  33.1159831  33.1159831   3.8850024   3.8850024
   3.8840619   3.8840619
 TTTTTTTTTTTTTTTTTTTTTTTTTTTTTT MOQGAD      TELAPSE      142.22 TCPU      141.61
 TTTTTTTTTTTTTTTTTTTTTTTTTTTTTT SHELLXN     TELAPSE      208.57 TCPU      207.92
 TTTTTTTTTTTTTTTTTTTTTTTTTTTTTT MONMO3      TELAPSE      208.74 TCPU      208.09
 NUMERICALLY INTEGRATED DENSITY    147.9974951691
 TTTTTTTTTTTTTTTTTTTTTTTTTTTTTT NUMDFT      TELAPSE      213.96 TCPU      213.31
 CYC   2 ETOT(AU) -6.256967956115E+03 DETOT  1.59E+02 tst  5.96E+01 PX  2.14E+02
 TTTTTTTTTTTTTTTTTTTTTTTTTTTTTT DIIS        TELAPSE      213.97 TCPU      213.32
 DIIS TEST: 0.15470E+02 AT SCF   CYCLE   2 - DIIS ACTIVE - HISTORY:     2 CYCLES
 TTTTTTTTTTTTTTTTTTTTTTTTTTTTTT FDIK        TELAPSE      213.98 TCPU      213.33
 POSSIBLY CONDUCTING STATE - EFERMI(AU)  3.3215313E+00 (RES. CHARGE  6.43E-11;IT. 12)
 TTTTTTTTTTTTTTTTTTTTTTTTTTTTTT PDIG        TELAPSE      214.00 TCPU      213.35
 CHARGE NORMALIZATION FACTOR   1.00000000
 TOTAL ATOMIC CHARGES:
  27.0027146  27.0027146  26.9853863  26.9853863  10.0059357  10.0059357
  10.0059633  10.0059633
 TTTTTTTTTTTTTTTTTTTTTTTTTTTTTT MOQGAD      TELAPSE      214.03 TCPU      213.37
 TTTTTTTTTTTTTTTTTTTTTTTTTTTTTT SHELLXN     TELAPSE      280.32 TCPU      279.65
 TTTTTTTTTTTTTTTTTTTTTTTTTTTTTT MONMO3      TELAPSE      280.49 TCPU      279.82
 NUMERICALLY INTEGRATED DENSITY    147.9990363173
 TTTTTTTTTTTTTTTTTTTTTTTTTTTTTT NUMDFT      TELAPSE      285.73 TCPU      285.06
 CYC   3 ETOT(AU) -6.546424140652E+03 DETOT -2.89E+02 tst  1.97E+02 PX  1.66E+02
 TTTTTTTTTTTTTTTTTTTTTTTTTTTTTT DIIS        TELAPSE      285.73 TCPU      285.06
 DIIS TEST: 0.88875E+01 AT SCF   CYCLE   3 - DIIS ACTIVE - HISTORY:     3 CYCLES
 TTTTTTTTTTTTTTTTTTTTTTTTTTTTTT FDIK        TELAPSE      285.75 TCPU      285.08
 POSSIBLY CONDUCTING STATE - EFERMI(AU) -5.4057753E-01 (RES. CHARGE  8.09E-11;IT. 10)
 TTTTTTTTTTTTTTTTTTTTTTTTTTTTTT PDIG        TELAPSE      285.76 TCPU      285.09
 CHARGE NORMALIZATION FACTOR   1.00000000
 TOTAL ATOMIC CHARGES:
  32.9979148  32.9979148  32.9995859  32.9995859   4.0226297   4.0226297
   3.9798696   3.9798696
 TTTTTTTTTTTTTTTTTTTTTTTTTTTTTT MOQGAD      TELAPSE      285.79 TCPU      285.12
 TTTTTTTTTTTTTTTTTTTTTTTTTTTTTT SHELLXN     TELAPSE      352.20 TCPU      351.46
 TTTTTTTTTTTTTTTTTTTTTTTTTTTTTT MONMO3      TELAPSE      352.37 TCPU      351.62
 NUMERICALLY INTEGRATED DENSITY    147.9996080345
 TTTTTTTTTTTTTTTTTTTTTTTTTTTTTT NUMDFT      TELAPSE      357.65 TCPU      356.87
 CYC   4 ETOT(AU) -6.702543422018E+03 DETOT -1.56E+02 tst  6.56E+02 PX  1.23E+02
 TTTTTTTTTTTTTTTTTTTTTTTTTTTTTT DIIS        TELAPSE      357.65 TCPU      356.88
 DIIS TEST: 0.85462E+01 AT SCF   CYCLE   4 - DIIS ACTIVE - HISTORY:     4 CYCLES
 TTTTTTTTTTTTTTTTTTTTTTTTTTTTTT FDIK        TELAPSE      357.67 TCPU      356.90
 POSSIBLY CONDUCTING STATE - EFERMI(AU)  1.9267135E-01 (RES. CHARGE  1.82E-12;IT. 10)
 TTTTTTTTTTTTTTTTTTTTTTTTTTTTTT PDIG        TELAPSE      357.69 TCPU      356.91
 CHARGE NORMALIZATION FACTOR   1.00000000
 TOTAL ATOMIC CHARGES:
  28.1328223  28.1328223  27.8276975  27.8276975   8.8668241   8.8668241
   9.1726561   9.1726561
 TTTTTTTTTTTTTTTTTTTTTTTTTTTTTT MOQGAD      TELAPSE      357.71 TCPU      356.94
 TTTTTTTTTTTTTTTTTTTTTTTTTTTTTT SHELLXN     TELAPSE      424.21 TCPU      423.33
 TTTTTTTTTTTTTTTTTTTTTTTTTTTTTT MONMO3      TELAPSE      424.38 TCPU      423.50
 NUMERICALLY INTEGRATED DENSITY    147.9974519306
 TTTTTTTTTTTTTTTTTTTTTTTTTTTTTT NUMDFT      TELAPSE      429.64 TCPU      428.76
 CYC   5 ETOT(AU) -6.369723183911E+03 DETOT  3.33E+02 tst  3.72E+01 PX  2.44E+02
 TTTTTTTTTTTTTTTTTTTTTTTTTTTTTT DIIS        TELAPSE      429.64 TCPU      428.76
 DIIS TEST: 0.95324E+01 AT SCF   CYCLE   5 - DIIS ACTIVE - HISTORY:     5 CYCLES
 TTTTTTTTTTTTTTTTTTTTTTTTTTTTTT FDIK        TELAPSE      429.66 TCPU      428.78
 POSSIBLY CONDUCTING STATE - EFERMI(AU) -1.2076572E-01 (RES. CHARGE  8.95E-13;IT. 12)
 TTTTTTTTTTTTTTTTTTTTTTTTTTTTTT PDIG        TELAPSE      429.68 TCPU      428.79
 CHARGE NORMALIZATION FACTOR   1.00000000
 TOTAL ATOMIC CHARGES:
  29.2824622  29.2824622  31.3687701  31.3687701   8.2354376   8.2354376
   5.1133301   5.1133301
 TTTTTTTTTTTTTTTTTTTTTTTTTTTTTT MOQGAD      TELAPSE      429.70 TCPU      428.82
 TTTTTTTTTTTTTTTTTTTTTTTTTTTTTT SHELLXN     TELAPSE      496.07 TCPU      495.15
 TTTTTTTTTTTTTTTTTTTTTTTTTTTTTT MONMO3      TELAPSE      496.24 TCPU      495.33
 NUMERICALLY INTEGRATED DENSITY    147.9990769183
 TTTTTTTTTTTTTTTTTTTTTTTTTTTTTT NUMDFT      TELAPSE      501.51 TCPU      500.60
 CYC   6 ETOT(AU) -6.720115698209E+03 DETOT -3.50E+02 tst  1.05E+02 PX  2.13E+02
 TTTTTTTTTTTTTTTTTTTTTTTTTTTTTT DIIS        TELAPSE      501.52 TCPU      500.60
 DIIS TEST: 0.15031E+03 AT SCF   CYCLE   6 - DIIS ACTIVE - HISTORY:     6 CYCLES
 TTTTTTTTTTTTTTTTTTTTTTTTTTTTTT FDIK        TELAPSE      501.54 TCPU      500.62
 POSSIBLY CONDUCTING STATE - EFERMI(AU) -2.7437245E-01 (RES. CHARGE  0.00E+00;IT. 16)
 TTTTTTTTTTTTTTTTTTTTTTTTTTTTTT PDIG        TELAPSE      501.55 TCPU      500.64
 CHARGE NORMALIZATION FACTOR   1.00000000
 TOTAL ATOMIC CHARGES:
  31.5520772  31.5520772  31.2706958  31.2706958   4.7252988   4.7252988
   6.4519282   6.4519282
 TTTTTTTTTTTTTTTTTTTTTTTTTTTTTT MOQGAD      TELAPSE      501.58 TCPU      500.66
 TTTTTTTTTTTTTTTTTTTTTTTTTTTTTT SHELLXN     TELAPSE      567.97 TCPU      567.03
 TTTTTTTTTTTTTTTTTTTTTTTTTTTTTT MONMO3      TELAPSE      568.14 TCPU      567.20
 NUMERICALLY INTEGRATED DENSITY    147.9991169438
 TTTTTTTTTTTTTTTTTTTTTTTTTTTTTT NUMDFT      TELAPSE      573.39 TCPU      572.45
 CYC   7 ETOT(AU) -6.720324321387E+03 DETOT -2.09E-01 tst  7.91E-01 PX  2.44E+00
 TTTTTTTTTTTTTTTTTTTTTTTTTTTTTT DIIS        TELAPSE      573.39 TCPU      572.46
 DIIS TEST: 0.47386E+02 AT SCF   CYCLE   7 - DIIS ACTIVE - HISTORY:     7 CYCLES
 TTTTTTTTTTTTTTTTTTTTTTTTTTTTTT FDIK        TELAPSE      573.41 TCPU      572.47
 POSSIBLY CONDUCTING STATE - EFERMI(AU) -3.0222796E-01 (RES. CHARGE  6.04E-10;IT. 12)
 TTTTTTTTTTTTTTTTTTTTTTTTTTTTTT PDIG        TELAPSE      573.43 TCPU      572.49
 CHARGE NORMALIZATION FACTOR   1.00000000
 TOTAL ATOMIC CHARGES:
  31.4034569  31.4034569  31.7092207  31.7092207   6.1099164   6.1099164
   4.7774061   4.7774061
 TTTTTTTTTTTTTTTTTTTTTTTTTTTTTT MOQGAD      TELAPSE      573.45 TCPU      572.51
 TTTTTTTTTTTTTTTTTTTTTTTTTTTTTT SHELLXN     TELAPSE      640.11 TCPU      639.08
 TTTTTTTTTTTTTTTTTTTTTTTTTTTTTT MONMO3      TELAPSE      640.28 TCPU      639.25
 NUMERICALLY INTEGRATED DENSITY    147.9991259209
 TTTTTTTTTTTTTTTTTTTTTTTTTTTTTT NUMDFT      TELAPSE      645.66 TCPU      644.59
 CYC   8 ETOT(AU) -6.721396211571E+03 DETOT -1.07E+00 tst  2.03E-01 PX  9.72E-01
 TTTTTTTTTTTTTTTTTTTTTTTTTTTTTT DIIS        TELAPSE      645.66 TCPU      644.60
 DIIS TEST: 0.56595E+02 AT SCF   CYCLE   8 - DIIS ACTIVE - HISTORY:     8 CYCLES
 TTTTTTTTTTTTTTTTTTTTTTTTTTTTTT FDIK        TELAPSE      645.68 TCPU      644.61
 POSSIBLY CONDUCTING STATE - EFERMI(AU) -3.1122249E-01 (RES. CHARGE  5.42E-08;IT. 39)
 TTTTTTTTTTTTTTTTTTTTTTTTTTTTTT PDIG        TELAPSE      645.70 TCPU      644.63
 CHARGE NORMALIZATION FACTOR   1.00000000
 TOTAL ATOMIC CHARGES:
  31.5310107  31.5310107  31.7334317  31.7334317   5.9664460   5.9664460
   4.7691116   4.7691116
 TTTTTTTTTTTTTTTTTTTTTTTTTTTTTT MOQGAD      TELAPSE      645.72 TCPU      644.65
 TTTTTTTTTTTTTTTTTTTTTTTTTTTTTT SHELLXN     TELAPSE      713.09 TCPU      711.61
 TTTTTTTTTTTTTTTTTTTTTTTTTTTTTT MONMO3      TELAPSE      713.28 TCPU      711.79
 NUMERICALLY INTEGRATED DENSITY    147.9991464452
 TTTTTTTTTTTTTTTTTTTTTTTTTTTTTT NUMDFT      TELAPSE      718.62 TCPU      717.10
 CYC   9 ETOT(AU) -6.719268734083E+03 DETOT  2.13E+00 tst  9.14E-02 PX  7.06E-01
 TTTTTTTTTTTTTTTTTTTTTTTTTTTTTT DIIS        TELAPSE      718.63 TCPU      717.10
 DIIS TEST: 0.50925E+02 AT SCF   CYCLE   9 - DIIS ACTIVE - HISTORY:     9 CYCLES
 TTTTTTTTTTTTTTTTTTTTTTTTTTTTTT FDIK        TELAPSE      718.65 TCPU      717.12
 POSSIBLY CONDUCTING STATE - EFERMI(AU) -2.9860340E-01 (RES. CHARGE  4.26E-13;IT. 12)
 TTTTTTTTTTTTTTTTTTTTTTTTTTTTTT PDIG        TELAPSE      718.66 TCPU      717.13
 CHARGE NORMALIZATION FACTOR   1.00000000
 TOTAL ATOMIC CHARGES:
  31.4163097  31.4163097  31.6296263  31.6296263   6.0901230   6.0901230
   4.8639410   4.8639410
 TTTTTTTTTTTTTTTTTTTTTTTTTTTTTT MOQGAD      TELAPSE      718.69 TCPU      717.16
 TTTTTTTTTTTTTTTTTTTTTTTTTTTTTT SHELLXN     TELAPSE      785.91 TCPU      784.10
 TTTTTTTTTTTTTTTTTTTTTTTTTTTTTT MONMO3      TELAPSE      786.08 TCPU      784.27
 NUMERICALLY INTEGRATED DENSITY    147.9991718777
 TTTTTTTTTTTTTTTTTTTTTTTTTTTTTT NUMDFT      TELAPSE      791.41 TCPU      789.58
 CYC  10 ETOT(AU) -6.721907283978E+03 DETOT -2.64E+00 tst  2.90E-02 PX  1.06E+00
 TTTTTTTTTTTTTTTTTTTTTTTTTTTTTT DIIS        TELAPSE      791.42 TCPU      789.59
 DIIS TEST: 0.37132E+02 AT SCF   CYCLE  10 - DIIS ACTIVE - HISTORY:    10 CYCLES
 TTTTTTTTTTTTTTTTTTTTTTTTTTTTTT FDIK        TELAPSE      791.43 TCPU      789.60
 POSSIBLY CONDUCTING STATE - EFERMI(AU) -2.8998907E-01 (RES. CHARGE  1.24E-10;IT.  8)
 TTTTTTTTTTTTTTTTTTTTTTTTTTTTTT PDIG        TELAPSE      791.45 TCPU      789.62
 CHARGE NORMALIZATION FACTOR   1.00000000
 TOTAL ATOMIC CHARGES:
  31.6394898  31.6394898  31.1992369  31.1992369   5.0520759   5.0520759
   6.1091973   6.1091973
 TTTTTTTTTTTTTTTTTTTTTTTTTTTTTT MOQGAD      TELAPSE      791.48 TCPU      789.64
 TTTTTTTTTTTTTTTTTTTTTTTTTTTTTT SHELLXN     TELAPSE      859.00 TCPU      856.80
 TTTTTTTTTTTTTTTTTTTTTTTTTTTTTT MONMO3      TELAPSE      859.17 TCPU      856.98
 NUMERICALLY INTEGRATED DENSITY    148.0001102059
 TTTTTTTTTTTTTTTTTTTTTTTTTTTTTT NUMDFT      TELAPSE      864.47 TCPU      862.27
 CYC  11 ETOT(AU) -6.726298559520E+03 DETOT -4.39E+00 tst  5.61E-01 PX  4.18E+01
 TTTTTTTTTTTTTTTTTTTTTTTTTTTTTT DIIS        TELAPSE      864.47 TCPU      862.27
 DIIS TEST: 0.35720E+02 AT SCF   CYCLE  11 - DIIS ACTIVE - HISTORY:    11 CYCLES
 TTTTTTTTTTTTTTTTTTTTTTTTTTTTTT FDIK        TELAPSE      864.49 TCPU      862.29
 POSSIBLY CONDUCTING STATE - EFERMI(AU) -1.7983013E-01 (RES. CHARGE  8.69E-11;IT. 12)
 TTTTTTTTTTTTTTTTTTTTTTTTTTTTTT PDIG        TELAPSE      864.51 TCPU      862.31
 CHARGE NORMALIZATION FACTOR   1.00000000
 TOTAL ATOMIC CHARGES:
  31.0613908  31.0613908  30.3446928  30.3446928   4.6898855   4.6898855
   7.9040308   7.9040308
 TTTTTTTTTTTTTTTTTTTTTTTTTTTTTT MOQGAD      TELAPSE      864.53 TCPU      862.33
 TTTTTTTTTTTTTTTTTTTTTTTTTTTTTT SHELLXN     TELAPSE      931.30 TCPU      928.97
 TTTTTTTTTTTTTTTTTTTTTTTTTTTTTT MONMO3      TELAPSE      931.48 TCPU      929.14
 NUMERICALLY INTEGRATED DENSITY    148.0000587916
 TTTTTTTTTTTTTTTTTTTTTTTTTTTTTT NUMDFT      TELAPSE      936.82 TCPU      934.42
 CYC  12 ETOT(AU) -6.720344883592E+03 DETOT  5.95E+00 tst  1.11E+00 PX  2.98E+00
 TTTTTTTTTTTTTTTTTTTTTTTTTTTTTT DIIS        TELAPSE      936.83 TCPU      934.43
 DIIS TEST: 0.11133E+02 AT SCF   CYCLE  12 - DIIS ACTIVE - HISTORY:    12 CYCLES
 TTTTTTTTTTTTTTTTTTTTTTTTTTTTTT FDIK        TELAPSE      936.85 TCPU      934.45
 POSSIBLY CONDUCTING STATE - EFERMI(AU)  3.7582770E-01 (RES. CHARGE  9.39E-10;IT. 10)
 TTTTTTTTTTTTTTTTTTTTTTTTTTTTTT PDIG        TELAPSE      936.86 TCPU      934.46
 CHARGE NORMALIZATION FACTOR   1.00000000
 TOTAL ATOMIC CHARGES:
  26.0254467  26.0254467  32.9002398  32.9002398   9.9986369   9.9986369
   5.0756766   5.0756766
 TTTTTTTTTTTTTTTTTTTTTTTTTTTTTT MOQGAD      TELAPSE      936.89 TCPU      934.49
 TTTTTTTTTTTTTTTTTTTTTTTTTTTTTT SHELLXN     TELAPSE     1003.35 TCPU     1000.85
 TTTTTTTTTTTTTTTTTTTTTTTTTTTTTT MONMO3      TELAPSE     1003.51 TCPU     1001.02
 NUMERICALLY INTEGRATED DENSITY    147.9992698633
 TTTTTTTTTTTTTTTTTTTTTTTTTTTTTT NUMDFT      TELAPSE     1008.79 TCPU     1006.28
 CYC  13 ETOT(AU) -6.662198058664E+03 DETOT  5.81E+01 tst  1.12E+01 PX  8.50E+01
 TTTTTTTTTTTTTTTTTTTTTTTTTTTTTT DIIS        TELAPSE     1008.80 TCPU     1006.28
 DIIS TEST: 0.15656E+03 AT SCF   CYCLE  13 - DIIS ACTIVE - HISTORY:    13 CYCLES
 TTTTTTTTTTTTTTTTTTTTTTTTTTTTTT FDIK        TELAPSE     1008.82 TCPU     1006.30
 POSSIBLY CONDUCTING STATE - EFERMI(AU) -5.5002175E-01 (RES. CHARGE  1.56E-12;IT. 12)
 TTTTTTTTTTTTTTTTTTTTTTTTTTTTTT PDIG        TELAPSE     1008.83 TCPU     1006.31
 CHARGE NORMALIZATION FACTOR   1.00000000
 TOTAL ATOMIC CHARGES:
  32.2818334  32.2818334  32.3492960  32.3492960   6.0670500   6.0670500
   3.3018205   3.3018205
 TTTTTTTTTTTTTTTTTTTTTTTTTTTTTT MOQGAD      TELAPSE     1008.86 TCPU     1006.34
 TTTTTTTTTTTTTTTTTTTTTTTTTTTTTT SHELLXN     TELAPSE     1075.17 TCPU     1072.62
 TTTTTTTTTTTTTTTTTTTTTTTTTTTTTT MONMO3      TELAPSE     1075.34 TCPU     1072.79
 NUMERICALLY INTEGRATED DENSITY    148.0001881381
 TTTTTTTTTTTTTTTTTTTTTTTTTTTTTT NUMDFT      TELAPSE     1080.57 TCPU     1078.02
 CYC  14 ETOT(AU) -6.674064469738E+03 DETOT -1.19E+01 tst  1.68E+01 PX  8.73E+01
 TTTTTTTTTTTTTTTTTTTTTTTTTTTTTT DIIS        TELAPSE     1080.58 TCPU     1078.02
 DIIS TEST: 0.15763E+02 AT SCF   CYCLE  14 - DIIS ACTIVE - HISTORY:    14 CYCLES
 TTTTTTTTTTTTTTTTTTTTTTTTTTTTTT FDIK        TELAPSE     1080.60 TCPU     1078.04
 POSSIBLY CONDUCTING STATE - EFERMI(AU) -3.3908546E-01 (RES. CHARGE  4.53E-10;IT.  8)
 TTTTTTTTTTTTTTTTTTTTTTTTTTTTTT PDIG        TELAPSE     1080.61 TCPU     1078.06
 CHARGE NORMALIZATION FACTOR   1.00000000
 TOTAL ATOMIC CHARGES:
  32.1780914  32.1780914  31.2555540  31.2555540   6.2545432   6.2545432
   4.3118115   4.3118115
 TTTTTTTTTTTTTTTTTTTTTTTTTTTTTT MOQGAD      TELAPSE     1080.64 TCPU     1078.08
 TTTTTTTTTTTTTTTTTTTTTTTTTTTTTT SHELLXN     TELAPSE     1147.00 TCPU     1144.42
 TTTTTTTTTTTTTTTTTTTTTTTTTTTTTT MONMO3      TELAPSE     1147.17 TCPU     1144.58
 NUMERICALLY INTEGRATED DENSITY    148.0001871507
 TTTTTTTTTTTTTTTTTTTTTTTTTTTTTT NUMDFT      TELAPSE     1152.40 TCPU     1149.82
 CYC  15 ETOT(AU) -6.698937460386E+03 DETOT -2.49E+01 tst  2.26E+00 PX  3.38E+00
 TTTTTTTTTTTTTTTTTTTTTTTTTTTTTT DIIS        TELAPSE     1152.41 TCPU     1149.82
 DIIS TEST: 0.24741E+02 AT SCF   CYCLE  15 - DIIS ACTIVE - HISTORY:    15 CYCLES
 TTTTTTTTTTTTTTTTTTTTTTTTTTTTTT FDIK        TELAPSE     1152.43 TCPU     1149.84
 POSSIBLY CONDUCTING STATE - EFERMI(AU) -2.9668954E-01 (RES. CHARGE  8.31E-10;IT.  8)
 TTTTTTTTTTTTTTTTTTTTTTTTTTTTTT PDIG        TELAPSE     1152.44 TCPU     1149.86
 CHARGE NORMALIZATION FACTOR   1.00000000
 TOTAL ATOMIC CHARGES:
  32.2348863  32.2348863  30.7561048  30.7561048   6.5735175   6.5735175
   4.4354914   4.4354914
 TTTTTTTTTTTTTTTTTTTTTTTTTTTTTT MOQGAD      TELAPSE     1152.47 TCPU     1149.88
 TTTTTTTTTTTTTTTTTTTTTTTTTTTTTT SHELLXN     TELAPSE     1219.04 TCPU     1216.34
 TTTTTTTTTTTTTTTTTTTTTTTTTTTTTT MONMO3      TELAPSE     1219.21 TCPU     1216.51
 NUMERICALLY INTEGRATED DENSITY    148.0001757536
 TTTTTTTTTTTTTTTTTTTTTTTTTTTTTT NUMDFT      TELAPSE     1224.47 TCPU     1221.74
 CYC  16 ETOT(AU) -6.707633480722E+03 DETOT -8.70E+00 tst  1.45E-01 PX  1.32E+00
 TTTTTTTTTTTTTTTTTTTTTTTTTTTTTT DIIS        TELAPSE     1224.48 TCPU     1221.75
 DIIS TEST: 0.26803E+02 AT SCF   CYCLE  16 - DIIS ACTIVE - HISTORY:    16 CYCLES
 TTTTTTTTTTTTTTTTTTTTTTTTTTTTTT FDIK        TELAPSE     1224.50 TCPU     1221.77
 POSSIBLY CONDUCTING STATE - EFERMI(AU) -3.6795190E-01 (RES. CHARGE  0.00E+00;IT. 14)
 TTTTTTTTTTTTTTTTTTTTTTTTTTTTTT PDIG        TELAPSE     1224.51 TCPU     1221.78
 CHARGE NORMALIZATION FACTOR   1.00000000
 TOTAL ATOMIC CHARGES:
  31.8887289  31.8887289  31.8427408  31.8427408   4.2851122   4.2851122
   5.9834181   5.9834181
 TTTTTTTTTTTTTTTTTTTTTTTTTTTTTT MOQGAD      TELAPSE     1224.54 TCPU     1221.81
 TTTTTTTTTTTTTTTTTTTTTTTTTTTTTT SHELLXN     TELAPSE     1290.91 TCPU     1288.12
 TTTTTTTTTTTTTTTTTTTTTTTTTTTTTT MONMO3      TELAPSE     1291.07 TCPU     1288.29
 NUMERICALLY INTEGRATED DENSITY    148.0001858022
 TTTTTTTTTTTTTTTTTTTTTTTTTTTTTT NUMDFT      TELAPSE     1296.31 TCPU     1293.52
 CYC  17 ETOT(AU) -6.704206793177E+03 DETOT  3.43E+00 tst  6.38E-01 PX  2.62E+00
 TTTTTTTTTTTTTTTTTTTTTTTTTTTTTT DIIS        TELAPSE     1296.31 TCPU     1293.52
 DIIS TEST: 0.33528E+02 AT SCF   CYCLE  17 - DIIS ACTIVE - HISTORY:    17 CYCLES
 TTTTTTTTTTTTTTTTTTTTTTTTTTTTTT FDIK        TELAPSE     1296.33 TCPU     1293.54
 POSSIBLY CONDUCTING STATE - EFERMI(AU) -3.5125954E-01 (RES. CHARGE  1.75E-10;IT. 10)
 TTTTTTTTTTTTTTTTTTTTTTTTTTTTTT PDIG        TELAPSE     1296.35 TCPU     1293.56
 CHARGE NORMALIZATION FACTOR   1.00000000
 TOTAL ATOMIC CHARGES:
  31.9033025  31.9033025  31.8756724  31.8756724   4.5783840   4.5783840
   5.6426411   5.6426411
 TTTTTTTTTTTTTTTTTTTTTTTTTTTTTT MOQGAD      TELAPSE     1296.37 TCPU     1293.58
 TTTTTTTTTTTTTTTTTTTTTTTTTTTTTT SHELLXN     TELAPSE     1362.68 TCPU     1359.86
 TTTTTTTTTTTTTTTTTTTTTTTTTTTTTT MONMO3      TELAPSE     1362.85 TCPU     1360.03
 NUMERICALLY INTEGRATED DENSITY    148.0001934277
 TTTTTTTTTTTTTTTTTTTTTTTTTTTTTT NUMDFT      TELAPSE     1368.10 TCPU     1365.28
 CYC  18 ETOT(AU) -6.706076613672E+03 DETOT -1.87E+00 tst  3.62E-01 PX  1.53E+00
 TTTTTTTTTTTTTTTTTTTTTTTTTTTTTT DIIS        TELAPSE     1368.11 TCPU     1365.28
 DIIS TEST: 0.39620E+02 AT SCF   CYCLE  18 - DIIS ACTIVE - HISTORY:    18 CYCLES
 TTTTTTTTTTTTTTTTTTTTTTTTTTTTTT FDIK        TELAPSE     1368.12 TCPU     1365.30
 POSSIBLY CONDUCTING STATE - EFERMI(AU) -3.4613178E-01 (RES. CHARGE  0.00E+00;IT. 10)
 TTTTTTTTTTTTTTTTTTTTTTTTTTTTTT PDIG        TELAPSE     1368.14 TCPU     1365.32
 CHARGE NORMALIZATION FACTOR   1.00000000
 TOTAL ATOMIC CHARGES:
  31.8950062  31.8950062  31.8382423  31.8382423   4.7963854   4.7963854
   5.4703660   5.4703660
 TTTTTTTTTTTTTTTTTTTTTTTTTTTTTT MOQGAD      TELAPSE     1368.17 TCPU     1365.34
 TTTTTTTTTTTTTTTTTTTTTTTTTTTTTT SHELLXN     TELAPSE     1434.49 TCPU     1431.64
 TTTTTTTTTTTTTTTTTTTTTTTTTTTTTT MONMO3      TELAPSE     1434.66 TCPU     1431.81
 NUMERICALLY INTEGRATED DENSITY    148.0001802631
 TTTTTTTTTTTTTTTTTTTTTTTTTTTTTT NUMDFT      TELAPSE     1439.91 TCPU     1437.06
 CYC  19 ETOT(AU) -6.710163575621E+03 DETOT -4.09E+00 tst  2.31E-02 PX  9.78E-01
 TTTTTTTTTTTTTTTTTTTTTTTTTTTTTT DIIS        TELAPSE     1439.91 TCPU     1437.06
 DIIS TEST: 0.34070E+02 AT SCF   CYCLE  19 - DIIS ACTIVE - HISTORY:    19 CYCLES
 TTTTTTTTTTTTTTTTTTTTTTTTTTTTTT FDIK        TELAPSE     1439.93 TCPU     1437.08
 POSSIBLY CONDUCTING STATE - EFERMI(AU) -3.1024744E-01 (RES. CHARGE  7.59E-10;IT. 10)
 TTTTTTTTTTTTTTTTTTTTTTTTTTTTTT PDIG        TELAPSE     1439.94 TCPU     1437.10
 CHARGE NORMALIZATION FACTOR   1.00000000
 TOTAL ATOMIC CHARGES:
  31.5033732  31.5033732  31.5857080  31.5857080   5.7398506   5.7398506
   5.1710681   5.1710681
 TTTTTTTTTTTTTTTTTTTTTTTTTTTTTT MOQGAD      TELAPSE     1439.97 TCPU     1437.12
 TTTTTTTTTTTTTTTTTTTTTTTTTTTTTT SHELLXN     TELAPSE     1506.29 TCPU     1503.43

 ::: DIPOLE MOMENT ALONG NON PERIODIC DIRECTIONS:
 ::: A.U.     (Z) -5.92528E+00
 ::: DEBYE         1.50606E+01

 +++ ENERGIES IN A.U. +++
 ::: EXT EL-POLE                                  -1.5273663420738E+04
 ::: EXT EL-SPHEROPOLE                             0.0000000000000E+00
 ::: BIELET ZONE E-E                               1.1922982344043E+04
 ::: TOTAL E-E                                    -3.3506810766949E+03
 ::: TOTAL E-N + N-E                              -2.8873652192440E+03
 ::: TOTAL N-N                                    -7.0748705835013E+03
 ::: KINETIC ENERGY                                6.8404217608185E+03
 ::: PSEUDO TOTAL   ENERGY                        -6.4724951186216E+03
 ::: VIRIAL COEFFICIENT                            1.0276368165992E+00
 TTTTTTTTTTTTTTTTTTTTTTTTTTTTTT MONMO3      TELAPSE     1506.46 TCPU     1503.60
 NUMERICALLY INTEGRATED DENSITY    148.0001620892
 TTTTTTTTTTTTTTTTTTTTTTTTTTTTTT NUMDFT      TELAPSE     1511.71 TCPU     1508.84
 CYC  20 ETOT(AU) -6.721024021979E+03 DETOT -1.09E+01 tst  7.01E-02 PX  9.78E-01

 == SCF ENDED - TOO MANY CYCLES            E(AU) -6.7210240219795E+03 CYCLES  20


 ENERGY EXPRESSION=HARTREE+FOCK EXCH*0.20000+(BECKE      EXCH)*0.80000+LYP        CORR


 TOTAL ENERGY(DFT)(AU)( 20) -6.7210240219795E+03 DE-1.1E+01 tester 7.0E-02
 TTTTTTTTTTTTTTTTTTTTTTTTTTTTTT EDFT        TELAPSE     1511.71 TCPU     1508.84
 EIGENVECTORS IN FORTRAN UNIT  8
 TTTTTTTTTTTTTTTTTTTTTTTTTTTTTT END         TELAPSE     1511.73 TCPU     1508.86
 EEEEEEEEEE TERMINATION  DATE 15 02 2022 TIME 09:36:32.1
Tue 15 Feb 2022 09:36:32 GMT
Contents of temporary directory:
total 14760
-rw-r--r--  1 brunocamino  admin   952320 15 Feb 09:35 diis_Fg
-rw-r--r--  1 brunocamino  admin   374976 15 Feb 09:34 diis_Fia1
-rw-r--r--  1 brunocamino  admin   395808 15 Feb 09:35 diis_Fia2
-rw-r--r--  1 brunocamino  admin        0 15 Feb 09:11 diis_Sk
-rw-r--r--  1 brunocamino  admin  1190112 15 Feb 09:34 fort.10
-rw-r--r--  1 brunocamino  admin    47616 15 Feb 09:35 fort.11
-rw-r--r--  1 brunocamino  admin     1723 15 Feb 09:11 fort.34
-rw-r--r--  1 brunocamino  admin    66880 15 Feb 09:11 fort.61
-rw-r--r--  1 brunocamino  admin    42752 15 Feb 09:11 fort.62
-rw-r--r--  1 brunocamino  admin  1190112 15 Feb 09:35 fort.8
-rw-r--r--  1 brunocamino  admin   298740 15 Feb 09:36 fort.9
-rw-r--r--  1 brunocamino  admin   109120 15 Feb 09:34 fort.95
-rw-r--r--  1 brunocamino  admin   773514 15 Feb 09:36 fort.98
wave function binary file /Users/brunocamino/Desktop/Imperial/cmsg_icl/ml-surface-adsorption/data/Cu_O_100_6.f9
file fort.98 saved as /Users/brunocamino/Desktop/Imperial/cmsg_icl/ml-surface-adsorption/data/Cu_O_100_6.f98
geometry input file fort.34 saved as /Users/brunocamino/Desktop/Imperial/cmsg_icl/ml-surface-adsorption/data/Cu_O_100_6.gui
temporary directory /Users/brunocamino/crystal/tmp removed
