date Fri 21 Jan 2022 12:21:20 GMT
hostname MacBook-Pro-3.local
system Darwin MacBook-Pro-3.local 20.6.0 Darwin Kernel Version 20.6.0: Wed Jun 23 00:26:27 PDT 2021; root:xnu-7195.141.2~5/RELEASE_ARM64_T8101 x86_64
user brunocamino
output data in /Users/brunocamino/Desktop/Imperial/cmsg_icl/ml-surface-adsorption/data/Mg2O2_O1_100_4_BSSE_ads.out
crystal executable in /Users/brunocamino/crystal
input data in /Users/brunocamino/Desktop/Imperial/cmsg_icl/ml-surface-adsorption/data/Mg2O2_O1_100_4_BSSE_ads.d12
temporary directory /Users/brunocamino/crystal/tmp
external geometry input from /Users/brunocamino/Desktop/Imperial/cmsg_icl/ml-surface-adsorption/data/Mg2O2_O1_100_4_BSSE_ads.gui
external geometry input saved in /Users/brunocamino/Desktop/Imperial/cmsg_icl/ml-surface-adsorption/data/Mg2O2_O1_100_4_BSSE_ads_inp.gui
Adsorption tests
EXTERNAL
EXTPRT
BASISSET
STO-3G
GHOSTS
4
1 2 3 4
DFT
B3LYP
XXLGRID
ENDDFT
TOLINTEG
7 7 7 7 14
SHRINK
12 24
MAXCYCLE
200
ENDSCF

         
 *******************************************************************************
 *                                                                             *
 *                               CRYSTAL17                                     *
 *                      public : 1.0.2 - March 1st, 2018                       *
 *                       HTTP://WWW.CRYSTAL.UNITO.IT                           *
 *                                                                             *
 *                              MAIN AUTHORS                                   *
 *                                                                             *
 *  R. DOVESI(1,11), V.R. SAUNDERS(2), C. ROETTI(1,11), R. ORLANDO(1,11),      *
 *  C.M. ZICOVICH-WILSON(1,3), F. PASCALE(4), B. CIVALLERI(1,11),              *
 *  K. DOLL(5), N.M. HARRISON(2,6), I.J. BUSH(7), Ph. D'ARCO(8),               *
 *  M. LLUNELL(9), M. CAUSA'(10), Y. NOEL(8), L. MASCHIO(1,11), A. ERBA(1,11)  *
 *  M. RE'RAT(14), S. CASASSA(1,11)                                            *
 *                                                                             *
 *        CONTRIBUTIONS TO THE CODE HAVE ALSO BEEN GIVEN BY                    *
 *                                                                             *
 *  M. FERRABONE(1,11), M. DE LA PIERRE(1,11), M. FERRERO(1,11),               *
 *  J. BAIMA(1,11), E. ALBANESE(1,11), M.F. PEINTINGER(12), R. BAST(13),       *
 *  B. KIRTMAN(15), V. LACIVITA(1,11), R. DEMICHELIS(1,16)                     *
 *  G. BRANDEBURG(17), S. SALUSTRO(1,11), G. SANSONE(1,11)                     *
 *  M.T. RUGGIERO(18)                                                          *
 *                                                                             *
 * (1) THEORETICAL CHEMISTRY GROUP - UNIVERSITA' DI TORINO - TORINO (ITALY)    *
 * (2) COMPUTATIONAL SCIENCE & ENGINEERING DEPARTMENT - STFC DARESBURY (UK)    *
 * (3) UNIVERSIDAD AUTONOMA DEL ESTADO DE MORELOS - CUERNAVACA (MEXICO)        *
 * (4) UNIVERSITE' DE LORRAINE - NANCY (FRANCE)                                *
 * (5) UNIVERSITAET STUTTGART- STUTTGART (GERMANY)                             *
 * (6) IMPERIAL COLLEGE - LONDON (UK)                                          *
 * (7) OXFORD E-RESEARCH CENTRE - OXFORD (UK)                                  *
 * (8) UPMC - SORBONNE UNIVERSITES - PARIS (FRANCE)                            *
 * (9) UNIVERSIDAD DE BARCELONA - BARCELONA (SPAIN)                            *
 *(10) UNIVERSITA' DI NAPOLI "FEDERICO II" - NAPOLI (ITALY)                    *
 *(11) NIS - NANOSTRUCTURED INTERFACES AND SURFACES - TORINO (ITALY)           *
 *(12) MPI FUER CHEMISCHE ENERGIEKONVERSION - MUELHEIM AN DER RUHR (GERMANY)   *
 *(13) UNIVERSITY OF TROMSO - TROMSO (NORWAY)                                  *
 *(14) UNIVERSITE' DE PAU ET DES PAYS DE L'ADOUR - PAU (FRANCE)                *
 *(15) UNIVERSITY OF CALIFORNIA SANTA BARBARA - SANTA BARBARA (USA)            *
 *(16) CURTIN UNIVERSITY - PERTH (AUSTRALIA)                                   *
 *(17) UNIVERSITY COLLEGE LONDON - LONDON (UK)                                 *
 *(18) CAMBRIDGE UNIVERSITY - CAMBRIDGE (UK)                                   *
 *                                                                             *
 *******************************************************************************
 EEEEEEEEEE STARTING  DATE 21 01 2022 TIME 12:21:20.5
 Adsorption tests                                                                

 GEOMETRY INPUT FROM EXTERNAL FILE (FORTRAN UNIT 34)
 2D - SLAB    

 *******************************************************************************
 LATTICE PARAMETERS  (ANGSTROMS AND DEGREES) - PRIMITIVE CELL
       A          B          C        ALPHA      BETA     GAMMA        VOLUME
    3.00979    3.00979  500.00000    90.00000  90.00000  90.00000     -9.058828
 INFORMATION **** CHKGRP **** SPGR WITH NO INVERSION

 NUMBER OF IRREDUCIBLE ATOMS IN THE CELL:    3

 CARTESIAN COORDINATES (ANGSTROM) - IRREDUCIBLE ATOMS AND SYMMETRY RELATED

 AT.IRR.  AT  AT.N.          X                   Y                   Z
     1     1    12    2.257340000000E+00  0.000000000000E+00  1.064120000000E+00
     1     2    12    7.524500000000E-01  1.504890000000E+00 -1.064120000000E+00
     3     3     8    2.257340000000E+00  0.000000000000E+00 -1.064120000000E+00
     3     4     8    7.524500000000E-01  1.504890000000E+00  1.064120000000E+00
     5     5     8    1.504890000000E+00  2.257340000000E+00 -3.064120000000E+00
     5     6     8    1.504890000000E+00  7.524500000000E-01  3.064120000000E+00

 SLAB  GROUP  N.                      :    4
 NUMBER OF SYMMETRY OPERATORS         :    2
 *******************************************************************************
 LATTICE PARAMETERS (ANGSTROMS AND DEGREES) - BOHR = 0.5291772083 ANGSTROM
 PRIMITIVE CELL
         A              B              C           ALPHA      BETA       GAMMA 
     3.00978870     3.00978870   500.00000000    90.000000  90.000000  90.000000
 *******************************************************************************
 ATOMS IN THE ASYMMETRIC UNIT    3 - ATOMS IN THE UNIT CELL:    6
     ATOM                 X/A                 Y/B             Z(ANGSTROM)
 *******************************************************************************
      1 T  12 MG    0.000000000000E+00 -2.500005067828E-01  1.064120000000E+00
      2 F  12 MG    4.999985546474E-01  2.500009385699E-01 -1.064120000000E+00
      3 T   8 O     0.000000000000E+00 -2.500005067828E-01 -1.064120000000E+00
      4 F   8 O     4.999985546474E-01  2.500009385699E-01  1.064120000000E+00
      5 T   8 O    -2.500005067828E-01  4.999985546474E-01 -3.064120000000E+00
      6 F   8 O     2.500009385699E-01  4.999985546474E-01  3.064120000000E+00

 T = ATOM BELONGING TO THE ASYMMETRIC UNIT
 *******************************************************************************
 * GEOMETRY EDITING - INPUT COORDINATES ARE GIVEN IN ANGSTROM         
 *******************************************************************************

 GEOMETRY NOW FULLY CONSISTENT WITH THE GROUP

 GCALCO - MAX INDICES DIRECT LATTICE VECTOR    83    83     0
 NO.OF VECTORS CREATED 6999 STARS  686 RMAX   268.28716 BOHR

 GEOMETRY FOR WAVE FUNCTION - DIMENSIONALITY OF THE SYSTEM    2
 (NON PERIODIC DIRECTION: LATTICE PARAMETER FORMALLY SET TO 500)
 *******************************************************************************
 LATTICE PARAMETERS (ANGSTROMS AND DEGREES) - BOHR = 0.5291772083 ANGSTROM
 PRIMITIVE CELL
         A              B              C           ALPHA      BETA       GAMMA 
     3.00978870     3.00978870   500.00000000    90.000000  90.000000  90.000000
 *******************************************************************************
 ATOMS IN THE ASYMMETRIC UNIT    3 - ATOMS IN THE UNIT CELL:    6
     ATOM                 X/A                 Y/B             Z(ANGSTROM)
 *******************************************************************************
      1 T  12 MG    0.000000000000E+00 -2.500005067828E-01  1.064120000000E+00
      2 F  12 MG   -5.000000000000E-01  2.500005067828E-01 -1.064120000000E+00
      3 T   8 O     0.000000000000E+00 -2.500005067828E-01 -1.064120000000E+00
      4 F   8 O    -5.000000000000E-01  2.500005067828E-01  1.064120000000E+00
      5 T   8 O    -2.500005067828E-01  4.999985546474E-01 -3.064120000000E+00
      6 F   8 O     2.499994931488E-01 -4.999985546474E-01  3.064120000000E+00

 T = ATOM BELONGING TO THE ASYMMETRIC UNIT

 ****    2 SYMMOPS - TRANSLATORS IN FRACTIONAL UNITS
 **** MATRICES AND TRANSLATORS IN THE CRYSTALLOGRAPHIC REFERENCE FRAME
   V INV                    ROTATION MATRICES                   TRANSLATORS
   1   1  1.00  0.00  0.00  0.00  1.00  0.00  0.00  0.00  1.00  0.00  0.00  0.00
   2   2  1.00  0.00  0.00  0.00 -1.00  0.00  0.00  0.00 -1.00 -0.50  0.00  0.00

 DIRECT LATTICE VECTORS CARTESIAN COMPONENTS (ANGSTROM)
          X                    Y                    Z
   0.000000000000E+00  -0.300978870041E+01   0.000000000000E+00
   0.300978870041E+01   0.000000000000E+00   0.000000000000E+00
   0.000000000000E+00   0.000000000000E+00   0.500000000000E+03


 CARTESIAN COORDINATES - PRIMITIVE CELL
 *******************************************************************************
 *      ATOM          X(ANGSTROM)         Y(ANGSTROM)         Z(ANGSTROM)
 *******************************************************************************
    1    12 MG    2.257340000000E+00  0.000000000000E+00  1.064120000000E+00
    2    12 MG    7.524487004120E-01 -1.504894350206E+00 -1.064120000000E+00
    3     8 O     2.257340000000E+00  0.000000000000E+00 -1.064120000000E+00
    4     8 O     7.524487004120E-01 -1.504894350206E+00  1.064120000000E+00
    5     8 O     1.504890000000E+00 -2.257340000000E+00 -3.064120000000E+00
    6     8 O     1.504898700412E+00 -7.524456495880E-01  3.064120000000E+00

 *******************************************************************************
 STARTING BASIS SET HANDLING 
 *******************************************************************************

 Loading internal basis set: STO-3G              

 Please cite in your publication:
 H - Ne: W.J. Hehre, R.F. Stewart and J.A. Pople, J. Chem. Phys. 2657 (1969).   
                                                                                
                                                                                
                    
 Na - Ar: W.J. Hehre, R. Ditchfield, R.F. Stewart, J.A. Pople, J. Chem. Phys.  2
 769 (1970).                                                                    
                                                                                
                    
 K,Ca: W.J. Pietro, B.A. Levy, W.J. Hehre and R.F. Stewart, Inorg. Chem., 1980, 
 19 (8), pp 2225-2229                                                           
                                                                                
                    
 Ga-Kr: J. Am. Chem. Soc. 19, 2225 (1980).                                      
                                                                                
                                                                                
                    
 Sc-Zn, Y-Cd: W.J. Pietro and W.J. Hehre, J. Comp. Chem. 4, 241 (1983).         
                                                                                
                                                                                
                    

 *******************************************************************************
 LOCAL ATOMIC FUNCTIONS BASIS SET
 *******************************************************************************
   ATOM   X(AU)   Y(AU)   Z(AU)  N. TYPE  EXPONENT  S COEF   P COEF   D/F/G COEF
 *******************************************************************************
   1 MG   4.266   0.000   2.011
                                  1 S  
                                         2.992E+02 1.543E-01 0.000E+00 0.000E+00
                                         5.451E+01 5.353E-01 0.000E+00 0.000E+00
                                         1.475E+01 4.446E-01 0.000E+00 0.000E+00
                                  2 S  
                                         1.512E+01-9.997E-02 0.000E+00 0.000E+00
                                         3.514E+00 3.995E-01 0.000E+00 0.000E+00
                                         1.143E+00 7.001E-01 0.000E+00 0.000E+00
                                  3 S  
                                         1.395E+00-2.196E-01 0.000E+00 0.000E+00
                                         3.893E-01 2.256E-01 0.000E+00 0.000E+00
                                         1.524E-01 9.004E-01 0.000E+00 0.000E+00
                           4-     6 P  
                                         1.512E+01 0.000E+00 1.559E-01 0.000E+00
                                         3.514E+00 0.000E+00 6.077E-01 0.000E+00
                                         1.143E+00 0.000E+00 3.920E-01 0.000E+00
                           7-     9 P  
                                         1.395E+00 0.000E+00 1.059E-02 0.000E+00
                                         3.893E-01 0.000E+00 5.952E-01 0.000E+00
                                         1.524E-01 0.000E+00 4.620E-01 0.000E+00
   2 MG   1.422  -2.844  -2.011
   3 O    4.266   0.000  -2.011
                                 19 S  
                                         1.307E+02 1.543E-01 0.000E+00 0.000E+00
                                         2.381E+01 5.353E-01 0.000E+00 0.000E+00
                                         6.444E+00 4.446E-01 0.000E+00 0.000E+00
                                 20 S  
                                         5.033E+00-9.997E-02 0.000E+00 0.000E+00
                                         1.170E+00 3.995E-01 0.000E+00 0.000E+00
                                         3.804E-01 7.001E-01 0.000E+00 0.000E+00
                          21-    23 P  
                                         5.033E+00 0.000E+00 1.559E-01 0.000E+00
                                         1.170E+00 0.000E+00 6.077E-01 0.000E+00
                                         3.804E-01 0.000E+00 3.920E-01 0.000E+00
   4 O    1.422  -2.844   2.011
   5 O    2.844  -4.266  -5.790
   6 O    2.844  -1.422   5.790

 *******************************************************************************
 FINISHED BASIS SET HANDLING 
 *******************************************************************************

 INFORMATION **** SET_MPP **** PCRYSTAL CALCULATION
 INFORMATION **** READM2 **** NEW DEFAULT: FOCK/KS MATRIX MIXING SET TO 30 %
 INFORMATION **** READM2 **** NEW DEFAULT: FULL DIRECT SCF MODE
 INFORMATION **** READM2 **** NEW DEFAULT: COULOMB BIPOLAR BUFFER SET TO 32 Mb
 INFORMATION **** READM2 **** NEW DEFAULT: EXCHANGE BIPOLAR BUFFER SET TO 32 Mb

 *******************************************************************************
 * ATOMS TRANSFORMED INTO GHOSTS :   4
   1( 12)   2( 12)   3(  8)   4(  8)
 SYMMETRY MAY BE BROKEN

 *******************************************************************************
 NEW DEFAULT: DFT INTEGRATION GRID INCREASED TO XLGRID
 NEW DEFAULT: DIIS ACCELERATOR ACTIVE
 USE KEYWORD NODIIS TO TURN IT OFF
 *******************************************************************************

 INFORMATION **** TOLINTEG **** COULOMB AND EXCHANGE SERIES TOLERANCES MODIFIED
 INFORMATION **** MAXCYCLE **** MAX NUMBER OF SCF CYCLES SET TO         200

 GHOST ATOMS - REMOVAL OF NUCLEAR CHARGE AND ELECTRONS
 TOTAL NUCLEAR CHARGE        1.600000E+01
 TOTAL ELECTRONIC CHARGE     1.600000E+01
 *******************************************************************************
 N. OF ATOMS PER CELL         6  COULOMB OVERLAP TOL         (T1) 10**   -7
 NUMBER OF SHELLS            22  COULOMB PENETRATION TOL     (T2) 10**   -7
 NUMBER OF AO                38  EXCHANGE OVERLAP TOL        (T3) 10**   -7
 N. OF ELECTRONS PER CELL    16  EXCHANGE PSEUDO OVP (F(G))  (T4) 10**   -7
 CORE ELECTRONS PER CELL      4  EXCHANGE PSEUDO OVP (P(G))  (T5) 10**  -14
 N. OF SYMMETRY OPERATORS     2  POLE ORDER IN MONO ZONE                  4
 *******************************************************************************
 TYPE OF CALCULATION :  RESTRICTED CLOSED SHELL
 KOHN-SHAM HAMILTONIAN

 (EXCHANGE)[CORRELATION] FUNCTIONAL:(BECKE 88)[LEE-YANG-PARR]

 NON-LOCAL WEIGHTING FACTOR (EXCHANGE) =           0.9000
 NON-LOCAL WEIGHTING FACTOR [CORRELATION] =        0.8100

 HYBRID EXCHANGE - PERCENTAGE OF FOCK EXCHANGE    20.0000

 CAPPA:IS1 12;IS2 12;IS3  1; K PTS MONK NET  49; SYMMOPS:K SPACE   4;G SPACE   2

 *******************************************************************************
 MAX NUMBER OF SCF CYCLES     200  CONVERGENCE ON DELTAP        10**-16
 WEIGHT OF F(I) IN F(I+1)      30% CONVERGENCE ON ENERGY        10**- 6
 SHRINK. FACT.(MONKH.)   12 12  1  NUMBER OF K POINTS IN THE IBZ     49
 SHRINKING FACTOR(GILAT NET)   24  NUMBER OF K POINTS(GILAT NET)    169
 *******************************************************************************
 *** K POINTS COORDINATES (OBLIQUE COORDINATES IN UNITS OF IS = 12)
   1-R(  0  0  0)   2-C(  1  0  0)   3-C(  2  0  0)   4-C(  3  0  0)
   5-C(  4  0  0)   6-C(  5  0  0)   7-R(  6  0  0)   8-C(  0  1  0)
   9-C(  1  1  0)  10-C(  2  1  0)  11-C(  3  1  0)  12-C(  4  1  0)
  13-C(  5  1  0)  14-C(  6  1  0)  15-C(  0  2  0)  16-C(  1  2  0)
  17-C(  2  2  0)  18-C(  3  2  0)  19-C(  4  2  0)  20-C(  5  2  0)
  21-C(  6  2  0)  22-C(  0  3  0)  23-C(  1  3  0)  24-C(  2  3  0)
  25-C(  3  3  0)  26-C(  4  3  0)  27-C(  5  3  0)  28-C(  6  3  0)
  29-C(  0  4  0)  30-C(  1  4  0)  31-C(  2  4  0)  32-C(  3  4  0)
  33-C(  4  4  0)  34-C(  5  4  0)  35-C(  6  4  0)  36-C(  0  5  0)
  37-C(  1  5  0)  38-C(  2  5  0)  39-C(  3  5  0)  40-C(  4  5  0)
  41-C(  5  5  0)  42-C(  6  5  0)  43-R(  0  6  0)  44-C(  1  6  0)
  45-C(  2  6  0)  46-C(  3  6  0)  47-C(  4  6  0)  48-C(  5  6  0)
  49-R(  6  6  0)

 DIRECT LATTICE VECTORS COMPON. (A.U.)     RECIP. LATTICE VECTORS COMPON. (A.U.) 
        X            Y            Z              X            Y            Z
    0.0000000   -5.6876764    0.0000000      0.0000000   -1.1047016    0.0000000
    5.6876764    0.0000000    0.0000000      1.1047016    0.0000000    0.0000000
    0.0000000    0.0000000  944.8630670      0.0000000    0.0000000    0.0066498

 DISK SPACE FOR EIGENVECTORS (FTN 10)      135736 REALS

 SYMMETRY ADAPTION OF THE BLOCH FUNCTIONS ENABLED
 TTTTTTTTTTTTTTTTTTTTTTTTTTTTTT gordsh1     TELAPSE        0.01 TCPU        0.01

 MATRIX SIZE: P(G)   21558, F(G)    4758, P(G) IRR    6181, F(G) IRR    2599
 MAX G-VECTOR INDEX FOR 1- AND 2-ELECTRON INTEGRALS  61

 TTTTTTTTTTTTTTTTTTTTTTTTTTTTTT INPUT       TELAPSE        0.01 TCPU        0.01

 NEIGHBORS OF THE NON-EQUIVALENT ATOMS

 N = NUMBER OF NEIGHBORS AT DISTANCE R
    ATOM  N     R/ANG      R/AU   NEIGHBORS (ATOM LABELS AND CELL INDICES)
   1 XX   2     2.1282     4.0218    4 XX   0 0 0    4 XX  -1 0 0
   1 XX   1     2.1282     4.0218    3 XX   0 0 0
   1 XX   2     2.1282     4.0218    4 XX   0 1 0    4 XX  -1 1 0
   1 XX   1     2.2655     4.2811    6 O    0 0 0
   1 XX   2     3.0098     5.6877    2 XX   0 0 0    2 XX  -1 0 0
   1 XX   4     3.0098     5.6877    1 XX  -1 0 0    1 XX   1 0 0    1 XX   0-1 0
                                     1 XX   0 1 0

   3 XX   2     2.1282     4.0218    2 XX   0 0 0    2 XX  -1 0 0
   3 XX   1     2.1282     4.0218    1 XX   0 0 0
   3 XX   2     2.1282     4.0218    2 XX   0 1 0    2 XX  -1 1 0
   3 XX   1     2.2655     4.2811    5 O   -1 0 0
   3 XX   2     3.0098     5.6877    4 XX   0 0 0    4 XX  -1 0 0
   3 XX   4     3.0098     5.6877    3 XX  -1 0 0    3 XX   1 0 0    3 XX   0-1 0
                                     3 XX   0 1 0

   5 O    1     2.2655     4.2811    2 XX   0 0 0
   5 O    1     2.2655     4.2811    3 XX   1 0 0
   5 O    4     3.0098     5.6877    5 O   -1 0 0    5 O    1 0 0    5 O    0-1 0
                                     5 O    0 1 0
   5 O    1     3.1083     5.8739    3 XX   1-1 0
   5 O    1     3.1083     5.8739    3 XX   0 0 0
   5 O    1     3.1083     5.8739    2 XX   1 0 0


 SYMMETRY ALLOWED INTERNAL DEGREE(S) OF FREEDOM:   8
 TTTTTTTTTTTTTTTTTTTTTTTTTTTTTT SYMM        TELAPSE        0.01 TCPU        0.01
 TTTTTTTTTTTTTTTTTTTTTTTTTTTTTT INT_SCREEN  TELAPSE        0.01 TCPU        0.01
 INFORMATION **** EXCBUF **** EXCH. BIPO BUFFER: WORDS USED =      100899

 DFT PARAMETERS

     ATOM       ELECTRONS   NET CHARGE   R(ANGSTROM)
   1   0  XX      0.0000      0.0000     0.50000000
   5   8  O       8.0000      0.0000     0.74000000

 SIZE OF GRID=     216112
 TTTTTTTTTTTTTTTTTTTTTTTTTTTTTT MAKE_GRID2  TELAPSE        0.19 TCPU        0.18
 BECKE WEIGHT FUNCTION
 RADSAFE =     2.00
 TOLERANCES - DENSITY:10**- 6; POTENTIAL:10**- 9; GRID WGT:10**-14

 RADIAL INTEGRATION  - INTERVALS (POINTS,UPPER LIMIT):            1( 99,  4.0*R)

 ANGULAR INTEGRATION - INTERVALS (ACCURACY LEVEL [N. POINTS] UPPER LIMIT):
  1(  6[ 146]   0.2)  2( 11[ 302]   0.5)  3( 14[ 590]   0.9)  4( 18[1454]   3.5)
  5( 14[ 590]9999.0)

 GHOST ATOMS - REMOVAL OF NUCLEAR CHARGE AND ELECTRONS
 TOTAL NUCLEAR CHARGE        1.600000E+01
 TOTAL ELECTRONIC CHARGE     1.600000E+01
 TTTTTTTTTTTTTTTTTTTTTTTTTTTTTT INT_CALC    TELAPSE        0.19 TCPU        0.18
 EEEEEEEEEE INT_CALC TERMINATION  DATE 21 01 2022 TIME 12:21:20.7

 *******************************************************************************
 Adsorption tests                                                                
 CRYSTAL - SCF - TYPE OF CALCULATION :  RESTRICTED CLOSED SHELL
 *******************************************************************************

 CAPPA:IS1 12;IS2 12;IS3  1; K PTS MONK NET  49; SYMMOPS:K SPACE   4;G SPACE   2

 TTTTTTTTTTTTTTTTTTTTTTTTTTTTTT SDIK        TELAPSE        0.20 TCPU        0.20

 AAAAAAAAAAAAAAAAAAAAAAAAAAAAAAAAAAAAAAAAAAAAAAAAAAAAAAAAAAAAAAAAAAAAAAAAAAAAAAA
         ATOMIC WAVEFUNCTION(S)


 NUCLEAR CHARGE  8.0  SYMMETRY SPECIES            S    P
 N. ELECTRONS    8.0  NUMBER OF PRIMITIVE GTOS    6    3
                      NUMBER OF CONTRACTED GTOS   2    1
                      NUMBER OF CLOSED SHELLS     2    0
                      OPEN SHELL OCCUPATION       0    4

  ZNUC SCFIT  TOTAL HF ENERGY   KINETIC ENERGY   VIRIAL THEOREM ACCURACY
   8.0   1   -7.380415023E+01  7.344495887E+01 -2.004890620E+00  0.0E+00

 AAAAAAAAAAAAAAAAAAAAAAAAAAAAAAAAAAAAAAAAAAAAAAAAAAAAAAAAAAAAAAAAAAAAAAAAAAAAAAA

 CHARGE NORMALIZATION FACTOR   1.00000000
 TOTAL ATOMIC CHARGES:
   0.0000000   0.0000000   0.0000000   0.0000000   8.0000000   8.0000000
 TTTTTTTTTTTTTTTTTTTTTTTTTTTTTT MOQGAD      TELAPSE        0.21 TCPU        0.21
 TTTTTTTTTTTTTTTTTTTTTTTTTTTTTT SHELLXN     TELAPSE        7.78 TCPU        7.78
 TTTTTTTTTTTTTTTTTTTTTTTTTTTTTT MONMO3      TELAPSE        7.84 TCPU        7.84
 NUMERICALLY INTEGRATED DENSITY     15.9999453802
 TTTTTTTTTTTTTTTTTTTTTTTTTTTTTT NUMDFT      TELAPSE        8.90 TCPU        8.89
 CYC   0 ETOT(AU) -1.476751618350E+02 DETOT -1.48E+02 tst  0.00E+00 PX  1.00E+00
 TTTTTTTTTTTTTTTTTTTTTTTTTTTTTT DIIS        TELAPSE        8.90 TCPU        8.90
 TTTTTTTTTTTTTTTTTTTTTTTTTTTTTT FDIK        TELAPSE        8.92 TCPU        8.92
 POSSIBLY CONDUCTING STATE - EFERMI(AU) -1.3924106E-01 (RES. CHARGE  6.26E-10;IT. 14)
 TTTTTTTTTTTTTTTTTTTTTTTTTTTTTT PDIG        TELAPSE        8.93 TCPU        8.92
 CHARGE NORMALIZATION FACTOR   1.00000000
 TOTAL ATOMIC CHARGES:
   0.1241772   0.1241772   0.0054310   0.0054310   7.8703918   7.8703918
 TTTTTTTTTTTTTTTTTTTTTTTTTTTTTT MOQGAD      TELAPSE        8.93 TCPU        8.93
 TTTTTTTTTTTTTTTTTTTTTTTTTTTTTT SHELLXN     TELAPSE       16.63 TCPU       16.63
 TTTTTTTTTTTTTTTTTTTTTTTTTTTTTT MONMO3      TELAPSE       16.69 TCPU       16.69
 NUMERICALLY INTEGRATED DENSITY     15.9999307295
 TTTTTTTTTTTTTTTTTTTTTTTTTTTTTT NUMDFT      TELAPSE       19.33 TCPU       19.32
 CYC   1 ETOT(AU) -1.478110002859E+02 DETOT -1.36E-01 tst  0.00E+00 PX  1.00E+00
 TTTTTTTTTTTTTTTTTTTTTTTTTTTTTT DIIS        TELAPSE       19.33 TCPU       19.33
 DIIS TEST: 0.25699E-02 AT SCF   CYCLE   1 - MIX   30 %
 TTTTTTTTTTTTTTTTTTTTTTTTTTTTTT FDIK        TELAPSE       19.34 TCPU       19.34
 POSSIBLY CONDUCTING STATE - EFERMI(AU) -1.5758177E-01 (RES. CHARGE  4.57E-12;IT. 10)
 TTTTTTTTTTTTTTTTTTTTTTTTTTTTTT PDIG        TELAPSE       19.35 TCPU       19.34
 CHARGE NORMALIZATION FACTOR   1.00000000
 TOTAL ATOMIC CHARGES:
   0.1017369   0.1017369   0.0043653   0.0043653   7.8938978   7.8938978
 TTTTTTTTTTTTTTTTTTTTTTTTTTTTTT MOQGAD      TELAPSE       19.35 TCPU       19.35
 TTTTTTTTTTTTTTTTTTTTTTTTTTTTTT SHELLXN     TELAPSE       27.05 TCPU       27.05
 TTTTTTTTTTTTTTTTTTTTTTTTTTTTTT MONMO3      TELAPSE       27.11 TCPU       27.10
 NUMERICALLY INTEGRATED DENSITY     15.9999318729
 TTTTTTTTTTTTTTTTTTTTTTTTTTTTTT NUMDFT      TELAPSE       29.78 TCPU       29.78
 CYC   2 ETOT(AU) -1.478133165109E+02 DETOT -2.32E-03 tst  4.95E-04 PX  3.80E-02
 TTTTTTTTTTTTTTTTTTTTTTTTTTTTTT DIIS        TELAPSE       29.78 TCPU       29.78
 DIIS TEST: 0.39526E-04 AT SCF   CYCLE   2 - DIIS ACTIVE - HISTORY:     2 CYCLES
 TTTTTTTTTTTTTTTTTTTTTTTTTTTTTT FDIK        TELAPSE       29.80 TCPU       29.79
 POSSIBLY CONDUCTING STATE - EFERMI(AU) -1.6229136E-01 (RES. CHARGE  7.15E-11;IT.  8)
 TTTTTTTTTTTTTTTTTTTTTTTTTTTTTT PDIG        TELAPSE       29.80 TCPU       29.80
 CHARGE NORMALIZATION FACTOR   1.00000000
 TOTAL ATOMIC CHARGES:
   0.0990435   0.0990435   0.0042486   0.0042486   7.8967079   7.8967079
 TTTTTTTTTTTTTTTTTTTTTTTTTTTTTT MOQGAD      TELAPSE       29.81 TCPU       29.80
 TTTTTTTTTTTTTTTTTTTTTTTTTTTTTT SHELLXN     TELAPSE       37.50 TCPU       37.50
 TTTTTTTTTTTTTTTTTTTTTTTTTTTTTT MONMO3      TELAPSE       37.56 TCPU       37.56
 NUMERICALLY INTEGRATED DENSITY     15.9999319005
 TTTTTTTTTTTTTTTTTTTTTTTTTTTTTT NUMDFT      TELAPSE       40.20 TCPU       40.20
 CYC   3 ETOT(AU) -1.478134654829E+02 DETOT -1.49E-04 tst  3.13E-05 PX  1.85E-02
 TTTTTTTTTTTTTTTTTTTTTTTTTTTTTT DIIS        TELAPSE       40.20 TCPU       40.20
 DIIS TEST: 0.14666E-05 AT SCF   CYCLE   3 - DIIS ACTIVE - HISTORY:     3 CYCLES
 TTTTTTTTTTTTTTTTTTTTTTTTTTTTTT FDIK        TELAPSE       40.22 TCPU       40.21
 POSSIBLY CONDUCTING STATE - EFERMI(AU) -1.6230829E-01 (RES. CHARGE  3.20E-14;IT.  6)
 TTTTTTTTTTTTTTTTTTTTTTTTTTTTTT PDIG        TELAPSE       40.22 TCPU       40.21
 CHARGE NORMALIZATION FACTOR   1.00000000
 TOTAL ATOMIC CHARGES:
   0.0988778   0.0988778   0.0042601   0.0042601   7.8968621   7.8968621
 TTTTTTTTTTTTTTTTTTTTTTTTTTTTTT MOQGAD      TELAPSE       40.23 TCPU       40.22
 TTTTTTTTTTTTTTTTTTTTTTTTTTTTTT SHELLXN     TELAPSE       47.93 TCPU       47.92
 TTTTTTTTTTTTTTTTTTTTTTTTTTTTTT MONMO3      TELAPSE       47.99 TCPU       47.98
 NUMERICALLY INTEGRATED DENSITY     15.9999318417
 TTTTTTTTTTTTTTTTTTTTTTTTTTTTTT NUMDFT      TELAPSE       50.63 TCPU       50.62
 CYC   4 ETOT(AU) -1.478135572312E+02 DETOT -9.17E-05 tst  2.06E-05 PX  1.90E-02
 TTTTTTTTTTTTTTTTTTTTTTTTTTTTTT DIIS        TELAPSE       50.63 TCPU       50.62
 DIIS TEST: 0.16294E-06 AT SCF   CYCLE   4 - DIIS ACTIVE - HISTORY:     4 CYCLES
 TTTTTTTTTTTTTTTTTTTTTTTTTTTTTT FDIK        TELAPSE       50.64 TCPU       50.63
 POSSIBLY CONDUCTING STATE - EFERMI(AU) -1.6230600E-01 (RES. CHARGE  2.66E-15;IT.  6)
 TTTTTTTTTTTTTTTTTTTTTTTTTTTTTT PDIG        TELAPSE       50.64 TCPU       50.64
 CHARGE NORMALIZATION FACTOR   1.00000000
 TOTAL ATOMIC CHARGES:
   0.0988415   0.0988415   0.0042848   0.0042848   7.8968737   7.8968737
 TTTTTTTTTTTTTTTTTTTTTTTTTTTTTT MOQGAD      TELAPSE       50.65 TCPU       50.64
 TTTTTTTTTTTTTTTTTTTTTTTTTTTTTT SHELLXN     TELAPSE       58.35 TCPU       58.34
 TTTTTTTTTTTTTTTTTTTTTTTTTTTTTT MONMO3      TELAPSE       58.41 TCPU       58.40
 NUMERICALLY INTEGRATED DENSITY     15.9999317533
 TTTTTTTTTTTTTTTTTTTTTTTTTTTTTT NUMDFT      TELAPSE       61.04 TCPU       61.04
 CYC   5 ETOT(AU) -1.478136998229E+02 DETOT -1.43E-04 tst  2.61E-05 PX  2.48E-02
 TTTTTTTTTTTTTTTTTTTTTTTTTTTTTT DIIS        TELAPSE       61.05 TCPU       61.04
 DIIS TEST: 0.13870E-06 AT SCF   CYCLE   5 - DIIS ACTIVE - HISTORY:     5 CYCLES
 TTTTTTTTTTTTTTTTTTTTTTTTTTTTTT FDIK        TELAPSE       61.06 TCPU       61.05
 POSSIBLY CONDUCTING STATE - EFERMI(AU) -1.6201824E-01 (RES. CHARGE  9.63E-13;IT.  8)
 TTTTTTTTTTTTTTTTTTTTTTTTTTTTTT PDIG        TELAPSE       61.06 TCPU       61.06
 CHARGE NORMALIZATION FACTOR   1.00000000
 TOTAL ATOMIC CHARGES:
   0.0986745   0.0986745   0.0043939   0.0043939   7.8969316   7.8969316
 TTTTTTTTTTTTTTTTTTTTTTTTTTTTTT MOQGAD      TELAPSE       61.07 TCPU       61.06
 TTTTTTTTTTTTTTTTTTTTTTTTTTTTTT SHELLXN     TELAPSE       68.76 TCPU       68.76
 TTTTTTTTTTTTTTTTTTTTTTTTTTTTTT MONMO3      TELAPSE       68.82 TCPU       68.82
 NUMERICALLY INTEGRATED DENSITY     15.9999314226
 TTTTTTTTTTTTTTTTTTTTTTTTTTTTTT NUMDFT      TELAPSE       71.47 TCPU       71.46
 CYC   6 ETOT(AU) -1.478149090676E+02 DETOT -1.21E-03 tst  7.37E-04 PX  1.39E-01
 TTTTTTTTTTTTTTTTTTTTTTTTTTTTTT DIIS        TELAPSE       71.47 TCPU       71.46
 DIIS TEST: 0.11827E-06 AT SCF   CYCLE   6 - DIIS ACTIVE - HISTORY:     6 CYCLES
 TTTTTTTTTTTTTTTTTTTTTTTTTTTTTT FDIK        TELAPSE       71.48 TCPU       71.47
 POSSIBLY CONDUCTING STATE - EFERMI(AU) -1.6147954E-01 (RES. CHARGE  2.52E-12;IT.  8)
 TTTTTTTTTTTTTTTTTTTTTTTTTTTTTT PDIG        TELAPSE       71.48 TCPU       71.48
 CHARGE NORMALIZATION FACTOR   1.00000000
 TOTAL ATOMIC CHARGES:
   0.0986740   0.0986740   0.0044834   0.0044834   7.8968426   7.8968426
 TTTTTTTTTTTTTTTTTTTTTTTTTTTTTT MOQGAD      TELAPSE       71.49 TCPU       71.48
 TTTTTTTTTTTTTTTTTTTTTTTTTTTTTT SHELLXN     TELAPSE       79.19 TCPU       79.18
 TTTTTTTTTTTTTTTTTTTTTTTTTTTTTT MONMO3      TELAPSE       79.25 TCPU       79.24
 NUMERICALLY INTEGRATED DENSITY     15.9999311997
 TTTTTTTTTTTTTTTTTTTTTTTTTTTTTT NUMDFT      TELAPSE       81.89 TCPU       81.88
 CYC   7 ETOT(AU) -1.478158061413E+02 DETOT -8.97E-04 tst  4.55E-04 PX  1.35E-01
 TTTTTTTTTTTTTTTTTTTTTTTTTTTTTT DIIS        TELAPSE       81.89 TCPU       81.88
 DIIS TEST: 0.10418E-06 AT SCF   CYCLE   7 - DIIS ACTIVE - HISTORY:     7 CYCLES
 TTTTTTTTTTTTTTTTTTTTTTTTTTTTTT FDIK        TELAPSE       81.90 TCPU       81.89
 POSSIBLY CONDUCTING STATE - EFERMI(AU) -1.6087863E-01 (RES. CHARGE  5.62E-13;IT.  8)
 TTTTTTTTTTTTTTTTTTTTTTTTTTTTTT PDIG        TELAPSE       81.90 TCPU       81.90
 CHARGE NORMALIZATION FACTOR   1.00000000
 TOTAL ATOMIC CHARGES:
   0.0987753   0.0987753   0.0045115   0.0045115   7.8967132   7.8967132
 TTTTTTTTTTTTTTTTTTTTTTTTTTTTTT MOQGAD      TELAPSE       81.91 TCPU       81.90
 TTTTTTTTTTTTTTTTTTTTTTTTTTTTTT SHELLXN     TELAPSE       89.65 TCPU       89.64
 TTTTTTTTTTTTTTTTTTTTTTTTTTTTTT MONMO3      TELAPSE       89.71 TCPU       89.70
 NUMERICALLY INTEGRATED DENSITY     15.9999311279
 TTTTTTTTTTTTTTTTTTTTTTTTTTTTTT NUMDFT      TELAPSE       92.34 TCPU       92.33
 CYC   8 ETOT(AU) -1.478164292744E+02 DETOT -6.23E-04 tst  4.77E-05 PX  5.04E-02
 TTTTTTTTTTTTTTTTTTTTTTTTTTTTTT DIIS        TELAPSE       92.35 TCPU       92.34
 DIIS TEST: 0.54842E-07 AT SCF   CYCLE   8 - DIIS ACTIVE - HISTORY:     8 CYCLES
 TTTTTTTTTTTTTTTTTTTTTTTTTTTTTT FDIK        TELAPSE       92.36 TCPU       92.35
 POSSIBLY CONDUCTING STATE - EFERMI(AU) -1.6060919E-01 (RES. CHARGE  3.58E-11;IT.  8)
 TTTTTTTTTTTTTTTTTTTTTTTTTTTTTT PDIG        TELAPSE       92.36 TCPU       92.35
 CHARGE NORMALIZATION FACTOR   1.00000000
 TOTAL ATOMIC CHARGES:
   0.0988116   0.0988116   0.0045259   0.0045259   7.8966625   7.8966625
 TTTTTTTTTTTTTTTTTTTTTTTTTTTTTT MOQGAD      TELAPSE       92.37 TCPU       92.36
 TTTTTTTTTTTTTTTTTTTTTTTTTTTTTT SHELLXN     TELAPSE      100.07 TCPU      100.06
 TTTTTTTTTTTTTTTTTTTTTTTTTTTTTT MONMO3      TELAPSE      100.13 TCPU      100.12
 NUMERICALLY INTEGRATED DENSITY     15.9999310931
 TTTTTTTTTTTTTTTTTTTTTTTTTTTTTT NUMDFT      TELAPSE      102.76 TCPU      102.75
 CYC   9 ETOT(AU) -1.478168455383E+02 DETOT -4.16E-04 tst  1.11E-05 PX  2.68E-02
 TTTTTTTTTTTTTTTTTTTTTTTTTTTTTT DIIS        TELAPSE      102.77 TCPU      102.76
 DIIS TEST: 0.53966E-07 AT SCF   CYCLE   9 - DIIS ACTIVE - HISTORY:     9 CYCLES
 TTTTTTTTTTTTTTTTTTTTTTTTTTTTTT FDIK        TELAPSE      102.78 TCPU      102.77
 POSSIBLY CONDUCTING STATE - EFERMI(AU) -1.6130625E-01 (RES. CHARGE  4.71E-13;IT.  8)
 TTTTTTTTTTTTTTTTTTTTTTTTTTTTTT PDIG        TELAPSE      102.78 TCPU      102.77
 CHARGE NORMALIZATION FACTOR   1.00000000
 TOTAL ATOMIC CHARGES:
   0.0987683   0.0987683   0.0044832   0.0044832   7.8967486   7.8967486
 TTTTTTTTTTTTTTTTTTTTTTTTTTTTTT MOQGAD      TELAPSE      102.79 TCPU      102.78
 TTTTTTTTTTTTTTTTTTTTTTTTTTTTTT SHELLXN     TELAPSE      110.49 TCPU      110.48
 TTTTTTTTTTTTTTTTTTTTTTTTTTTTTT MONMO3      TELAPSE      110.55 TCPU      110.54
 NUMERICALLY INTEGRATED DENSITY     15.9999311961
 TTTTTTTTTTTTTTTTTTTTTTTTTTTTTT NUMDFT      TELAPSE      113.18 TCPU      113.17
 CYC  10 ETOT(AU) -1.478158301043E+02 DETOT  1.02E-03 tst  8.34E-05 PX  7.52E-02
 TTTTTTTTTTTTTTTTTTTTTTTTTTTTTT DIIS        TELAPSE      113.19 TCPU      113.18
 DIIS TEST: 0.38637E-07 AT SCF   CYCLE  10 - DIIS ACTIVE - HISTORY:    10 CYCLES
 TTTTTTTTTTTTTTTTTTTTTTTTTTTTTT FDIK        TELAPSE      113.20 TCPU      113.19
 POSSIBLY CONDUCTING STATE - EFERMI(AU) -1.6124616E-01 (RES. CHARGE  4.16E-13;IT.  6)
 TTTTTTTTTTTTTTTTTTTTTTTTTTTTTT PDIG        TELAPSE      113.20 TCPU      113.19
 CHARGE NORMALIZATION FACTOR   1.00000000
 TOTAL ATOMIC CHARGES:
   0.0987933   0.0987933   0.0044864   0.0044864   7.8967204   7.8967204
 TTTTTTTTTTTTTTTTTTTTTTTTTTTTTT MOQGAD      TELAPSE      113.21 TCPU      113.20
 TTTTTTTTTTTTTTTTTTTTTTTTTTTTTT SHELLXN     TELAPSE      120.92 TCPU      120.91
 TTTTTTTTTTTTTTTTTTTTTTTTTTTTTT MONMO3      TELAPSE      120.98 TCPU      120.97
 NUMERICALLY INTEGRATED DENSITY     15.9999311905
 TTTTTTTTTTTTTTTTTTTTTTTTTTTTTT NUMDFT      TELAPSE      123.62 TCPU      123.61
 CYC  11 ETOT(AU) -1.478158751461E+02 DETOT -4.50E-05 tst  4.61E-07 PX  4.34E-03
 TTTTTTTTTTTTTTTTTTTTTTTTTTTTTT DIIS        TELAPSE      123.62 TCPU      123.61
 DIIS TEST: 0.34279E-07 AT SCF   CYCLE  11 - DIIS ACTIVE - HISTORY:    11 CYCLES
 TTTTTTTTTTTTTTTTTTTTTTTTTTTTTT FDIK        TELAPSE      123.63 TCPU      123.62
 POSSIBLY CONDUCTING STATE - EFERMI(AU) -1.6247575E-01 (RES. CHARGE  3.22E-13;IT.  8)
 TTTTTTTTTTTTTTTTTTTTTTTTTTTTTT PDIG        TELAPSE      123.64 TCPU      123.63
 CHARGE NORMALIZATION FACTOR   1.00000000
 TOTAL ATOMIC CHARGES:
   0.0987090   0.0987090   0.0043274   0.0043274   7.8969636   7.8969636
 TTTTTTTTTTTTTTTTTTTTTTTTTTTTTT MOQGAD      TELAPSE      123.66 TCPU      123.63
 TTTTTTTTTTTTTTTTTTTTTTTTTTTTTT SHELLXN     TELAPSE      131.36 TCPU      131.33
 TTTTTTTTTTTTTTTTTTTTTTTTTTTTTT MONMO3      TELAPSE      131.42 TCPU      131.39
 NUMERICALLY INTEGRATED DENSITY     15.9999316166
 TTTTTTTTTTTTTTTTTTTTTTTTTTTTTT NUMDFT      TELAPSE      134.05 TCPU      134.03
 CYC  12 ETOT(AU) -1.478139990211E+02 DETOT  1.88E-03 tst  1.30E-03 PX  2.36E-01
 TTTTTTTTTTTTTTTTTTTTTTTTTTTTTT DIIS        TELAPSE      134.06 TCPU      134.03
 DIIS TEST: 0.17588E-07 AT SCF   CYCLE  12 - DIIS ACTIVE - HISTORY:    12 CYCLES
 TTTTTTTTTTTTTTTTTTTTTTTTTTTTTT FDIK        TELAPSE      134.07 TCPU      134.04
 POSSIBLY CONDUCTING STATE - EFERMI(AU) -1.6257574E-01 (RES. CHARGE  2.22E-11;IT.  6)
 TTTTTTTTTTTTTTTTTTTTTTTTTTTTTT PDIG        TELAPSE      134.07 TCPU      134.05
 CHARGE NORMALIZATION FACTOR   1.00000000
 TOTAL ATOMIC CHARGES:
   0.0986529   0.0986529   0.0043287   0.0043287   7.8970184   7.8970184
 TTTTTTTTTTTTTTTTTTTTTTTTTTTTTT MOQGAD      TELAPSE      134.08 TCPU      134.05
 TTTTTTTTTTTTTTTTTTTTTTTTTTTTTT SHELLXN     TELAPSE      141.78 TCPU      141.75
 TTTTTTTTTTTTTTTTTTTTTTTTTTTTTT MONMO3      TELAPSE      141.83 TCPU      141.81
 NUMERICALLY INTEGRATED DENSITY     15.9999316268
 TTTTTTTTTTTTTTTTTTTTTTTTTTTTTT NUMDFT      TELAPSE      144.47 TCPU      144.45
 CYC  13 ETOT(AU) -1.478139627093E+02 DETOT  3.63E-05 tst  1.43E-06 PX  4.72E-03
 TTTTTTTTTTTTTTTTTTTTTTTTTTTTTT DIIS        TELAPSE      144.47 TCPU      144.45
 DIIS TEST: 0.16615E-07 AT SCF   CYCLE  13 - DIIS ACTIVE - HISTORY:    13 CYCLES
 TTTTTTTTTTTTTTTTTTTTTTTTTTTTTT FDIK        TELAPSE      144.49 TCPU      144.46
 POSSIBLY CONDUCTING STATE - EFERMI(AU) -1.6344668E-01 (RES. CHARGE  1.78E-15;IT.  8)
 TTTTTTTTTTTTTTTTTTTTTTTTTTTTTT PDIG        TELAPSE      144.49 TCPU      144.46
 CHARGE NORMALIZATION FACTOR   1.00000000
 TOTAL ATOMIC CHARGES:
   0.0982596   0.0982596   0.0041805   0.0041805   7.8975599   7.8975599
 TTTTTTTTTTTTTTTTTTTTTTTTTTTTTT MOQGAD      TELAPSE      144.50 TCPU      144.47
 TTTTTTTTTTTTTTTTTTTTTTTTTTTTTT SHELLXN     TELAPSE      152.22 TCPU      152.19
 TTTTTTTTTTTTTTTTTTTTTTTTTTTTTT MONMO3      TELAPSE      152.28 TCPU      152.25
 NUMERICALLY INTEGRATED DENSITY     15.9999321469
 TTTTTTTTTTTTTTTTTTTTTTTTTTTTTT NUMDFT      TELAPSE      154.91 TCPU      154.88
 CYC  14 ETOT(AU) -1.478131889760E+02 DETOT  7.74E-04 tst  2.12E-03 PX  1.85E-01
 TTTTTTTTTTTTTTTTTTTTTTTTTTTTTT DIIS        TELAPSE      154.91 TCPU      154.89
 DIIS TEST: 0.29006E-06 AT SCF   CYCLE  14 - DIIS ACTIVE - HISTORY:    14 CYCLES
 TTTTTTTTTTTTTTTTTTTTTTTTTTTTTT FDIK        TELAPSE      154.93 TCPU      154.90
 POSSIBLY CONDUCTING STATE - EFERMI(AU) -1.6308240E-01 (RES. CHARGE  1.17E-10;IT.  6)
 TTTTTTTTTTTTTTTTTTTTTTTTTTTTTT PDIG        TELAPSE      154.93 TCPU      154.90
 CHARGE NORMALIZATION FACTOR   1.00000000
 TOTAL ATOMIC CHARGES:
   0.0984775   0.0984775   0.0042579   0.0042579   7.8972646   7.8972646
 TTTTTTTTTTTTTTTTTTTTTTTTTTTTTT MOQGAD      TELAPSE      154.93 TCPU      154.91
 TTTTTTTTTTTTTTTTTTTTTTTTTTTTTT SHELLXN     TELAPSE      162.65 TCPU      162.62
 TTTTTTTTTTTTTTTTTTTTTTTTTTTTTT MONMO3      TELAPSE      162.71 TCPU      162.68
 NUMERICALLY INTEGRATED DENSITY     15.9999318690
 TTTTTTTTTTTTTTTTTTTTTTTTTTTTTT NUMDFT      TELAPSE      165.35 TCPU      165.32
 CYC  15 ETOT(AU) -1.478134382227E+02 DETOT -2.49E-04 tst  7.09E-04 PX  1.01E-01
 TTTTTTTTTTTTTTTTTTTTTTTTTTTTTT DIIS        TELAPSE      165.35 TCPU      165.32
 DIIS TEST: 0.11956E-06 AT SCF   CYCLE  15 - DIIS ACTIVE - HISTORY:    15 CYCLES
 TTTTTTTTTTTTTTTTTTTTTTTTTTTTTT FDIK        TELAPSE      165.36 TCPU      165.33
 POSSIBLY CONDUCTING STATE - EFERMI(AU) -1.6305202E-01 (RES. CHARGE  6.75E-14;IT.  6)
 TTTTTTTTTTTTTTTTTTTTTTTTTTTTTT PDIG        TELAPSE      165.36 TCPU      165.34
 CHARGE NORMALIZATION FACTOR   1.00000000
 TOTAL ATOMIC CHARGES:
   0.0984813   0.0984813   0.0042607   0.0042607   7.8972580   7.8972580
 TTTTTTTTTTTTTTTTTTTTTTTTTTTTTT MOQGAD      TELAPSE      165.37 TCPU      165.34
 TTTTTTTTTTTTTTTTTTTTTTTTTTTTTT SHELLXN     TELAPSE      173.07 TCPU      173.04
 TTTTTTTTTTTTTTTTTTTTTTTTTTTTTT MONMO3      TELAPSE      173.13 TCPU      173.10
 NUMERICALLY INTEGRATED DENSITY     15.9999318659
 TTTTTTTTTTTTTTTTTTTTTTTTTTTTTT NUMDFT      TELAPSE      175.78 TCPU      175.76
 CYC  16 ETOT(AU) -1.478134424573E+02 DETOT -4.23E-06 tst  2.34E-08 PX  7.47E-04
 TTTTTTTTTTTTTTTTTTTTTTTTTTTTTT DIIS        TELAPSE      175.79 TCPU      175.76
 DIIS TEST: 0.11483E-06 AT SCF   CYCLE  16 - DIIS ACTIVE - HISTORY:    16 CYCLES
 TTTTTTTTTTTTTTTTTTTTTTTTTTTTTT FDIK        TELAPSE      175.80 TCPU      175.77
 POSSIBLY CONDUCTING STATE - EFERMI(AU) -1.6342272E-01 (RES. CHARGE  1.31E-10;IT.  6)
 TTTTTTTTTTTTTTTTTTTTTTTTTTTTTT PDIG        TELAPSE      175.80 TCPU      175.77
 CHARGE NORMALIZATION FACTOR   1.00000000
 TOTAL ATOMIC CHARGES:
   0.0983246   0.0983246   0.0042070   0.0042070   7.8974684   7.8974684
 TTTTTTTTTTTTTTTTTTTTTTTTTTTTTT MOQGAD      TELAPSE      175.81 TCPU      175.78
 TTTTTTTTTTTTTTTTTTTTTTTTTTTTTT SHELLXN     TELAPSE      183.50 TCPU      183.48
 TTTTTTTTTTTTTTTTTTTTTTTTTTTTTT MONMO3      TELAPSE      183.57 TCPU      183.54
 NUMERICALLY INTEGRATED DENSITY     15.9999320533
 TTTTTTTTTTTTTTTTTTTTTTTTTTTTTT NUMDFT      TELAPSE      186.20 TCPU      186.17
 CYC  17 ETOT(AU) -1.478132304600E+02 DETOT  2.12E-04 tst  3.69E-04 PX  7.00E-02
 TTTTTTTTTTTTTTTTTTTTTTTTTTTTTT DIIS        TELAPSE      186.20 TCPU      186.17
 DIIS TEST: 0.24375E-06 AT SCF   CYCLE  17 - DIIS ACTIVE - HISTORY:    17 CYCLES
 TTTTTTTTTTTTTTTTTTTTTTTTTTTTTT FDIK        TELAPSE      186.21 TCPU      186.18
 POSSIBLY CONDUCTING STATE - EFERMI(AU) -1.6309644E-01 (RES. CHARGE  1.04E-10;IT.  6)
 TTTTTTTTTTTTTTTTTTTTTTTTTTTTTT PDIG        TELAPSE      186.22 TCPU      186.19
 CHARGE NORMALIZATION FACTOR   1.00000000
 TOTAL ATOMIC CHARGES:
   0.0984725   0.0984725   0.0042261   0.0042261   7.8973014   7.8973014
 TTTTTTTTTTTTTTTTTTTTTTTTTTTTTT MOQGAD      TELAPSE      186.22 TCPU      186.19
 TTTTTTTTTTTTTTTTTTTTTTTTTTTTTT SHELLXN     TELAPSE      193.92 TCPU      193.89
 TTTTTTTTTTTTTTTTTTTTTTTTTTTTTT MONMO3      TELAPSE      193.98 TCPU      193.95
 NUMERICALLY INTEGRATED DENSITY     15.9999319845
 TTTTTTTTTTTTTTTTTTTTTTTTTTTTTT NUMDFT      TELAPSE      196.62 TCPU      196.59
 CYC  18 ETOT(AU) -1.478132968765E+02 DETOT -6.64E-05 tst  1.42E-04 PX  2.75E-02
 TTTTTTTTTTTTTTTTTTTTTTTTTTTTTT DIIS        TELAPSE      196.62 TCPU      196.59
 DIIS TEST: 0.11186E-06 AT SCF   CYCLE  18 - DIIS ACTIVE - HISTORY:    18 CYCLES
 TTTTTTTTTTTTTTTTTTTTTTTTTTTTTT FDIK        TELAPSE      196.63 TCPU      196.60
 POSSIBLY CONDUCTING STATE - EFERMI(AU) -1.6309526E-01 (RES. CHARGE  3.54E-11;IT.  4)
 TTTTTTTTTTTTTTTTTTTTTTTTTTTTTT PDIG        TELAPSE      196.64 TCPU      196.61
 CHARGE NORMALIZATION FACTOR   1.00000000
 TOTAL ATOMIC CHARGES:
   0.0984378   0.0984378   0.0042042   0.0042042   7.8973581   7.8973581
 TTTTTTTTTTTTTTTTTTTTTTTTTTTTTT MOQGAD      TELAPSE      196.64 TCPU      196.61
 TTTTTTTTTTTTTTTTTTTTTTTTTTTTTT SHELLXN     TELAPSE      204.35 TCPU      204.32
 TTTTTTTTTTTTTTTTTTTTTTTTTTTTTT MONMO3      TELAPSE      204.40 TCPU      204.37
 NUMERICALLY INTEGRATED DENSITY     15.9999320648
 TTTTTTTTTTTTTTTTTTTTTTTTTTTTTT NUMDFT      TELAPSE      207.05 TCPU      207.02
 CYC  19 ETOT(AU) -1.478132382141E+02 DETOT  5.87E-05 tst  6.31E-05 PX  3.08E-02
 TTTTTTTTTTTTTTTTTTTTTTTTTTTTTT DIIS        TELAPSE      207.05 TCPU      207.02
 DIIS TEST: 0.11914E-06 AT SCF   CYCLE  19 - DIIS ACTIVE - HISTORY:    19 CYCLES
 TTTTTTTTTTTTTTTTTTTTTTTTTTTTTT FDIK        TELAPSE      207.06 TCPU      207.03
 POSSIBLY CONDUCTING STATE - EFERMI(AU) -1.6313420E-01 (RES. CHARGE  1.83E-13;IT.  6)
 TTTTTTTTTTTTTTTTTTTTTTTTTTTTTT PDIG        TELAPSE      207.07 TCPU      207.04
 CHARGE NORMALIZATION FACTOR   1.00000000
 TOTAL ATOMIC CHARGES:
   0.0984260   0.0984260   0.0042051   0.0042051   7.8973690   7.8973690
 TTTTTTTTTTTTTTTTTTTTTTTTTTTTTT MOQGAD      TELAPSE      207.07 TCPU      207.04
 TTTTTTTTTTTTTTTTTTTTTTTTTTTTTT SHELLXN     TELAPSE      214.81 TCPU      214.78
 TTTTTTTTTTTTTTTTTTTTTTTTTTTTTT MONMO3      TELAPSE      214.87 TCPU      214.84
 NUMERICALLY INTEGRATED DENSITY     15.9999320667
 TTTTTTTTTTTTTTTTTTTTTTTTTTTTTT NUMDFT      TELAPSE      217.51 TCPU      217.47
 CYC  20 ETOT(AU) -1.478132350545E+02 DETOT  3.16E-06 tst  1.28E-07 PX  4.83E-04
 TTTTTTTTTTTTTTTTTTTTTTTTTTTTTT DIIS        TELAPSE      217.51 TCPU      217.48
 DIIS TEST: 0.13055E-06 AT SCF   CYCLE  20 - DIIS ACTIVE - HISTORY:    20 CYCLES
 TTTTTTTTTTTTTTTTTTTTTTTTTTTTTT FDIK        TELAPSE      217.52 TCPU      217.49
 POSSIBLY CONDUCTING STATE - EFERMI(AU) -1.6320007E-01 (RES. CHARGE  6.29E-13;IT.  6)
 TTTTTTTTTTTTTTTTTTTTTTTTTTTTTT PDIG        TELAPSE      217.52 TCPU      217.49
 CHARGE NORMALIZATION FACTOR   1.00000000
 TOTAL ATOMIC CHARGES:
   0.0983710   0.0983710   0.0041849   0.0041849   7.8974441   7.8974441
 TTTTTTTTTTTTTTTTTTTTTTTTTTTTTT MOQGAD      TELAPSE      217.53 TCPU      217.50
 TTTTTTTTTTTTTTTTTTTTTTTTTTTTTT SHELLXN     TELAPSE      225.23 TCPU      225.20
 TTTTTTTTTTTTTTTTTTTTTTTTTTTTTT MONMO3      TELAPSE      225.29 TCPU      225.26
 NUMERICALLY INTEGRATED DENSITY     15.9999321415
 TTTTTTTTTTTTTTTTTTTTTTTTTTTTTT NUMDFT      TELAPSE      227.93 TCPU      227.89
 CYC  21 ETOT(AU) -1.478132034044E+02 DETOT  3.17E-05 tst  2.72E-05 PX  2.34E-02
 TTTTTTTTTTTTTTTTTTTTTTTTTTTTTT DIIS        TELAPSE      227.93 TCPU      227.90
 DIIS TEST: 0.17164E-06 AT SCF   CYCLE  21 - DIIS ACTIVE - HISTORY:    21 CYCLES
 TTTTTTTTTTTTTTTTTTTTTTTTTTTTTT FDIK        TELAPSE      227.94 TCPU      227.91
 POSSIBLY CONDUCTING STATE - EFERMI(AU) -1.6310699E-01 (RES. CHARGE  1.76E-12;IT.  6)
 TTTTTTTTTTTTTTTTTTTTTTTTTTTTTT PDIG        TELAPSE      227.94 TCPU      227.91
 CHARGE NORMALIZATION FACTOR   1.00000000
 TOTAL ATOMIC CHARGES:
   0.0984113   0.0984113   0.0041946   0.0041946   7.8973941   7.8973941
 TTTTTTTTTTTTTTTTTTTTTTTTTTTTTT MOQGAD      TELAPSE      227.95 TCPU      227.92
 TTTTTTTTTTTTTTTTTTTTTTTTTTTTTT SHELLXN     TELAPSE      235.65 TCPU      235.61
 TTTTTTTTTTTTTTTTTTTTTTTTTTTTTT MONMO3      TELAPSE      235.71 TCPU      235.67
 NUMERICALLY INTEGRATED DENSITY     15.9999321088
 TTTTTTTTTTTTTTTTTTTTTTTTTTTTTT NUMDFT      TELAPSE      238.34 TCPU      238.31
 CYC  22 ETOT(AU) -1.478132143628E+02 DETOT -1.10E-05 tst  1.70E-05 PX  1.20E-02
 TTTTTTTTTTTTTTTTTTTTTTTTTTTTTT DIIS        TELAPSE      238.35 TCPU      238.31
 DIIS TEST: 0.13497E-06 AT SCF   CYCLE  22 - DIIS ACTIVE - HISTORY:    22 CYCLES
 TTTTTTTTTTTTTTTTTTTTTTTTTTTTTT FDIK        TELAPSE      238.36 TCPU      238.32
 POSSIBLY CONDUCTING STATE - EFERMI(AU) -1.6279310E-01 (RES. CHARGE  1.02E-10;IT.  6)
 TTTTTTTTTTTTTTTTTTTTTTTTTTTTTT PDIG        TELAPSE      238.36 TCPU      238.33
 CHARGE NORMALIZATION FACTOR   1.00000000
 TOTAL ATOMIC CHARGES:
   0.0985865   0.0985865   0.0042243   0.0042243   7.8971892   7.8971892
 TTTTTTTTTTTTTTTTTTTTTTTTTTTTTT MOQGAD      TELAPSE      238.37 TCPU      238.33
 TTTTTTTTTTTTTTTTTTTTTTTTTTTTTT SHELLXN     TELAPSE      246.07 TCPU      246.03
 TTTTTTTTTTTTTTTTTTTTTTTTTTTTTT MONMO3      TELAPSE      246.13 TCPU      246.09
 NUMERICALLY INTEGRATED DENSITY     15.9999319976
 TTTTTTTTTTTTTTTTTTTTTTTTTTTTTT NUMDFT      TELAPSE      248.76 TCPU      248.73
 CYC  23 ETOT(AU) -1.478132965916E+02 DETOT -8.22E-05 tst  1.07E-04 PX  3.93E-02
 TTTTTTTTTTTTTTTTTTTTTTTTTTTTTT DIIS        TELAPSE      248.76 TCPU      248.73
 DIIS TEST: 0.41647E-07 AT SCF   CYCLE  23 - DIIS ACTIVE - HISTORY:    23 CYCLES
 TTTTTTTTTTTTTTTTTTTTTTTTTTTTTT FDIK        TELAPSE      248.78 TCPU      248.74
 POSSIBLY CONDUCTING STATE - EFERMI(AU) -1.6251317E-01 (RES. CHARGE  6.77E-11;IT.  6)
 TTTTTTTTTTTTTTTTTTTTTTTTTTTTTT PDIG        TELAPSE      248.78 TCPU      248.74
 CHARGE NORMALIZATION FACTOR   1.00000000
 TOTAL ATOMIC CHARGES:
   0.0986598   0.0986598   0.0042143   0.0042143   7.8971259   7.8971259
 TTTTTTTTTTTTTTTTTTTTTTTTTTTTTT MOQGAD      TELAPSE      248.79 TCPU      248.75
 TTTTTTTTTTTTTTTTTTTTTTTTTTTTTT SHELLXN     TELAPSE      256.48 TCPU      256.45
 TTTTTTTTTTTTTTTTTTTTTTTTTTTTTT MONMO3      TELAPSE      256.54 TCPU      256.51
 NUMERICALLY INTEGRATED DENSITY     15.9999320446
 TTTTTTTTTTTTTTTTTTTTTTTTTTTTTT NUMDFT      TELAPSE      259.18 TCPU      259.14
 CYC  24 ETOT(AU) -1.478132509399E+02 DETOT  4.57E-05 tst  4.09E-05 PX  1.90E-02
 TTTTTTTTTTTTTTTTTTTTTTTTTTTTTT DIIS        TELAPSE      259.18 TCPU      259.15
 DIIS TEST: 0.85378E-08 AT SCF   CYCLE  24 - DIIS ACTIVE - HISTORY:    24 CYCLES
 TTTTTTTTTTTTTTTTTTTTTTTTTTTTTT FDIK        TELAPSE      259.20 TCPU      259.16
 POSSIBLY CONDUCTING STATE - EFERMI(AU) -1.6253817E-01 (RES. CHARGE  6.57E-14;IT.  6)
 TTTTTTTTTTTTTTTTTTTTTTTTTTTTTT PDIG        TELAPSE      259.20 TCPU      259.16
 CHARGE NORMALIZATION FACTOR   1.00000000
 TOTAL ATOMIC CHARGES:
   0.0986603   0.0986603   0.0042149   0.0042149   7.8971247   7.8971247
 TTTTTTTTTTTTTTTTTTTTTTTTTTTTTT MOQGAD      TELAPSE      259.21 TCPU      259.17
 TTTTTTTTTTTTTTTTTTTTTTTTTTTTTT SHELLXN     TELAPSE      266.90 TCPU      266.87
 TTTTTTTTTTTTTTTTTTTTTTTTTTTTTT MONMO3      TELAPSE      266.96 TCPU      266.93
 NUMERICALLY INTEGRATED DENSITY     15.9999320425
 TTTTTTTTTTTTTTTTTTTTTTTTTTTTTT NUMDFT      TELAPSE      269.64 TCPU      269.60
 CYC  25 ETOT(AU) -1.478132516960E+02 DETOT -7.56E-07 tst  1.12E-06 PX  1.20E-03
 TTTTTTTTTTTTTTTTTTTTTTTTTTTTTT DIIS        TELAPSE      269.64 TCPU      269.60
 DIIS TEST: 0.95467E-08 AT SCF   CYCLE  25 - DIIS ACTIVE - HISTORY:    25 CYCLES
 TTTTTTTTTTTTTTTTTTTTTTTTTTTTTT FDIK        TELAPSE      269.65 TCPU      269.61
 POSSIBLY CONDUCTING STATE - EFERMI(AU) -1.6243946E-01 (RES. CHARGE  3.83E-12;IT.  6)
 TTTTTTTTTTTTTTTTTTTTTTTTTTTTTT PDIG        TELAPSE      269.65 TCPU      269.62
 CHARGE NORMALIZATION FACTOR   1.00000000
 TOTAL ATOMIC CHARGES:
   0.0987007   0.0987007   0.0042256   0.0042256   7.8970737   7.8970737
 TTTTTTTTTTTTTTTTTTTTTTTTTTTTTT MOQGAD      TELAPSE      269.66 TCPU      269.62
 TTTTTTTTTTTTTTTTTTTTTTTTTTTTTT SHELLXN     TELAPSE      277.36 TCPU      277.32

 ::: DIPOLE MOMENT ALONG NON PERIODIC DIRECTIONS:
 ::: A.U.     (Z)  0.00000E+00
 ::: DEBYE         0.00000E+00

 +++ ENERGIES IN A.U. +++
 ::: EXT EL-POLE                                  -2.4898927709608E+02
 ::: EXT EL-SPHEROPOLE                             0.0000000000000E+00
 ::: BIELET ZONE E-E                               1.3210869588886E+02
 ::: TOTAL E-E                                    -1.1688058120722E+02
 ::: TOTAL E-N + N-E                               2.4442983537834E+01
 ::: TOTAL N-N                                    -1.8784166192355E+02
 ::: KINETIC ENERGY                                1.4602867145008E+02
 ::: PSEUDO TOTAL   ENERGY                        -1.3425058814285E+02
 ::: VIRIAL COEFFICIENT                            1.0420226716895E+00
 TTTTTTTTTTTTTTTTTTTTTTTTTTTTTT MONMO3      TELAPSE      277.42 TCPU      277.38
 NUMERICALLY INTEGRATED DENSITY     15.9999320129
 TTTTTTTTTTTTTTTTTTTTTTTTTTTTTT NUMDFT      TELAPSE      280.06 TCPU      280.02
 CYC  26 ETOT(AU) -1.478132775674E+02 DETOT -2.59E-05 tst  2.86E-05 PX  1.20E-03

 == SCF ENDED - CONVERGENCE ON ENERGY      E(AU) -1.4781327756740E+02 CYCLES  26


 ENERGY EXPRESSION=HARTREE+FOCK EXCH*0.20000+(BECKE      EXCH)*0.80000+LYP        CORR


 TOTAL ENERGY(DFT)(AU)( 26) -1.4781327756740E+02 DE-2.6E-05 tester 2.9E-05
 TTTTTTTTTTTTTTTTTTTTTTTTTTTTTT EDFT        TELAPSE      280.06 TCPU      280.02
 EIGENVECTORS IN FORTRAN UNIT  8
 TTTTTTTTTTTTTTTTTTTTTTTTTTTTTT END         TELAPSE      280.07 TCPU      280.03
 EEEEEEEEEE TERMINATION  DATE 21 01 2022 TIME 12:26:00.6
Fri 21 Jan 2022 12:26:00 GMT
Contents of temporary directory:
total 7464
-rw-r--r--  1 brunocamino  admin  540800 21 Jan 12:25 diis_Fg
-rw-r--r--  1 brunocamino  admin  139008 21 Jan 12:25 diis_Fia1
-rw-r--r--  1 brunocamino  admin  144800 21 Jan 12:25 diis_Fia2
-rw-r--r--  1 brunocamino  admin       0 21 Jan 12:21 diis_Sk
-rw-r--r--  1 brunocamino  admin  959304 21 Jan 12:25 fort.10
-rw-r--r--  1 brunocamino  admin   20800 21 Jan 12:25 fort.11
-rw-r--r--  1 brunocamino  admin    1103 21 Jan 12:21 fort.34
-rw-r--r--  1 brunocamino  admin   46832 21 Jan 12:21 fort.61
-rw-r--r--  1 brunocamino  admin   28192 21 Jan 12:21 fort.62
-rw-r--r--  1 brunocamino  admin  959304 21 Jan 12:25 fort.8
-rw-r--r--  1 brunocamino  admin  188220 21 Jan 12:26 fort.9
-rw-r--r--  1 brunocamino  admin   55072 21 Jan 12:25 fort.95
-rw-r--r--  1 brunocamino  admin  484260 21 Jan 12:26 fort.98
wave function binary file /Users/brunocamino/Desktop/Imperial/cmsg_icl/ml-surface-adsorption/data/Mg2O2_O1_100_4_BSSE_ads.f9
file fort.98 saved as /Users/brunocamino/Desktop/Imperial/cmsg_icl/ml-surface-adsorption/data/Mg2O2_O1_100_4_BSSE_ads.f98
geometry input file fort.34 saved as /Users/brunocamino/Desktop/Imperial/cmsg_icl/ml-surface-adsorption/data/Mg2O2_O1_100_4_BSSE_ads.gui
geometry input file fort.34 saved as /Users/brunocamino/Desktop/Imperial/cmsg_icl/ml-surface-adsorption/data/Mg2O2_O1_100_4_BSSE_ads.gui
temporary directory /Users/brunocamino/crystal/tmp removed
