date Fri 21 Jan 2022 12:20:03 GMT
hostname MacBook-Pro-3.local
system Darwin MacBook-Pro-3.local 20.6.0 Darwin Kernel Version 20.6.0: Wed Jun 23 00:26:27 PDT 2021; root:xnu-7195.141.2~5/RELEASE_ARM64_T8101 x86_64
user brunocamino
output data in /Users/brunocamino/Desktop/Imperial/cmsg_icl/ml-surface-adsorption/data/Mg2O2_O1_100_4_BSSE_sub.out
crystal executable in /Users/brunocamino/crystal
input data in /Users/brunocamino/Desktop/Imperial/cmsg_icl/ml-surface-adsorption/data/Mg2O2_O1_100_4_BSSE_sub.d12
temporary directory /Users/brunocamino/crystal/tmp
external geometry input from /Users/brunocamino/Desktop/Imperial/cmsg_icl/ml-surface-adsorption/data/Mg2O2_O1_100_4_BSSE_sub.gui
external geometry input saved in /Users/brunocamino/Desktop/Imperial/cmsg_icl/ml-surface-adsorption/data/Mg2O2_O1_100_4_BSSE_sub_inp.gui
Adsorption tests
EXTERNAL
EXTPRT
BASISSET
STO-3G
GHOSTS
2
5 6
DFT
B3LYP
XXLGRID
ENDDFT
TOLINTEG
7 7 7 7 14
SHRINK
12 24
MAXCYCLE
200
ENDSCF

         
 *******************************************************************************
 *                                                                             *
 *                               CRYSTAL17                                     *
 *                      public : 1.0.2 - March 1st, 2018                       *
 *                       HTTP://WWW.CRYSTAL.UNITO.IT                           *
 *                                                                             *
 *                              MAIN AUTHORS                                   *
 *                                                                             *
 *  R. DOVESI(1,11), V.R. SAUNDERS(2), C. ROETTI(1,11), R. ORLANDO(1,11),      *
 *  C.M. ZICOVICH-WILSON(1,3), F. PASCALE(4), B. CIVALLERI(1,11),              *
 *  K. DOLL(5), N.M. HARRISON(2,6), I.J. BUSH(7), Ph. D'ARCO(8),               *
 *  M. LLUNELL(9), M. CAUSA'(10), Y. NOEL(8), L. MASCHIO(1,11), A. ERBA(1,11)  *
 *  M. RE'RAT(14), S. CASASSA(1,11)                                            *
 *                                                                             *
 *        CONTRIBUTIONS TO THE CODE HAVE ALSO BEEN GIVEN BY                    *
 *                                                                             *
 *  M. FERRABONE(1,11), M. DE LA PIERRE(1,11), M. FERRERO(1,11),               *
 *  J. BAIMA(1,11), E. ALBANESE(1,11), M.F. PEINTINGER(12), R. BAST(13),       *
 *  B. KIRTMAN(15), V. LACIVITA(1,11), R. DEMICHELIS(1,16)                     *
 *  G. BRANDEBURG(17), S. SALUSTRO(1,11), G. SANSONE(1,11)                     *
 *  M.T. RUGGIERO(18)                                                          *
 *                                                                             *
 * (1) THEORETICAL CHEMISTRY GROUP - UNIVERSITA' DI TORINO - TORINO (ITALY)    *
 * (2) COMPUTATIONAL SCIENCE & ENGINEERING DEPARTMENT - STFC DARESBURY (UK)    *
 * (3) UNIVERSIDAD AUTONOMA DEL ESTADO DE MORELOS - CUERNAVACA (MEXICO)        *
 * (4) UNIVERSITE' DE LORRAINE - NANCY (FRANCE)                                *
 * (5) UNIVERSITAET STUTTGART- STUTTGART (GERMANY)                             *
 * (6) IMPERIAL COLLEGE - LONDON (UK)                                          *
 * (7) OXFORD E-RESEARCH CENTRE - OXFORD (UK)                                  *
 * (8) UPMC - SORBONNE UNIVERSITES - PARIS (FRANCE)                            *
 * (9) UNIVERSIDAD DE BARCELONA - BARCELONA (SPAIN)                            *
 *(10) UNIVERSITA' DI NAPOLI "FEDERICO II" - NAPOLI (ITALY)                    *
 *(11) NIS - NANOSTRUCTURED INTERFACES AND SURFACES - TORINO (ITALY)           *
 *(12) MPI FUER CHEMISCHE ENERGIEKONVERSION - MUELHEIM AN DER RUHR (GERMANY)   *
 *(13) UNIVERSITY OF TROMSO - TROMSO (NORWAY)                                  *
 *(14) UNIVERSITE' DE PAU ET DES PAYS DE L'ADOUR - PAU (FRANCE)                *
 *(15) UNIVERSITY OF CALIFORNIA SANTA BARBARA - SANTA BARBARA (USA)            *
 *(16) CURTIN UNIVERSITY - PERTH (AUSTRALIA)                                   *
 *(17) UNIVERSITY COLLEGE LONDON - LONDON (UK)                                 *
 *(18) CAMBRIDGE UNIVERSITY - CAMBRIDGE (UK)                                   *
 *                                                                             *
 *******************************************************************************
 EEEEEEEEEE STARTING  DATE 21 01 2022 TIME 12:20:03.2
 Adsorption tests                                                                

 GEOMETRY INPUT FROM EXTERNAL FILE (FORTRAN UNIT 34)
 2D - SLAB    

 *******************************************************************************
 LATTICE PARAMETERS  (ANGSTROMS AND DEGREES) - PRIMITIVE CELL
       A          B          C        ALPHA      BETA     GAMMA        VOLUME
    3.00979    3.00979  500.00000    90.00000  90.00000  90.00000     -9.058828
 INFORMATION **** CHKGRP **** SPGR WITH NO INVERSION

 NUMBER OF IRREDUCIBLE ATOMS IN THE CELL:    3

 CARTESIAN COORDINATES (ANGSTROM) - IRREDUCIBLE ATOMS AND SYMMETRY RELATED

 AT.IRR.  AT  AT.N.          X                   Y                   Z
     1     1    12    2.257340000000E+00  0.000000000000E+00  1.064120000000E+00
     1     2    12    7.524500000000E-01  1.504890000000E+00 -1.064120000000E+00
     3     3     8    2.257340000000E+00  0.000000000000E+00 -1.064120000000E+00
     3     4     8    7.524500000000E-01  1.504890000000E+00  1.064120000000E+00
     5     5     8    1.504890000000E+00  2.257340000000E+00 -3.064120000000E+00
     5     6     8    1.504890000000E+00  7.524500000000E-01  3.064120000000E+00

 SLAB  GROUP  N.                      :    4
 NUMBER OF SYMMETRY OPERATORS         :    2
 *******************************************************************************
 LATTICE PARAMETERS (ANGSTROMS AND DEGREES) - BOHR = 0.5291772083 ANGSTROM
 PRIMITIVE CELL
         A              B              C           ALPHA      BETA       GAMMA 
     3.00978870     3.00978870   500.00000000    90.000000  90.000000  90.000000
 *******************************************************************************
 ATOMS IN THE ASYMMETRIC UNIT    3 - ATOMS IN THE UNIT CELL:    6
     ATOM                 X/A                 Y/B             Z(ANGSTROM)
 *******************************************************************************
      1 T  12 MG    0.000000000000E+00 -2.500005067828E-01  1.064120000000E+00
      2 F  12 MG    4.999985546474E-01  2.500009385699E-01 -1.064120000000E+00
      3 T   8 O     0.000000000000E+00 -2.500005067828E-01 -1.064120000000E+00
      4 F   8 O     4.999985546474E-01  2.500009385699E-01  1.064120000000E+00
      5 T   8 O    -2.500005067828E-01  4.999985546474E-01 -3.064120000000E+00
      6 F   8 O     2.500009385699E-01  4.999985546474E-01  3.064120000000E+00

 T = ATOM BELONGING TO THE ASYMMETRIC UNIT
 *******************************************************************************
 * GEOMETRY EDITING - INPUT COORDINATES ARE GIVEN IN ANGSTROM         
 *******************************************************************************

 GEOMETRY NOW FULLY CONSISTENT WITH THE GROUP

 GCALCO - MAX INDICES DIRECT LATTICE VECTOR    83    83     0
 NO.OF VECTORS CREATED 6999 STARS  686 RMAX   268.28716 BOHR

 GEOMETRY FOR WAVE FUNCTION - DIMENSIONALITY OF THE SYSTEM    2
 (NON PERIODIC DIRECTION: LATTICE PARAMETER FORMALLY SET TO 500)
 *******************************************************************************
 LATTICE PARAMETERS (ANGSTROMS AND DEGREES) - BOHR = 0.5291772083 ANGSTROM
 PRIMITIVE CELL
         A              B              C           ALPHA      BETA       GAMMA 
     3.00978870     3.00978870   500.00000000    90.000000  90.000000  90.000000
 *******************************************************************************
 ATOMS IN THE ASYMMETRIC UNIT    3 - ATOMS IN THE UNIT CELL:    6
     ATOM                 X/A                 Y/B             Z(ANGSTROM)
 *******************************************************************************
      1 T  12 MG    0.000000000000E+00 -2.500005067828E-01  1.064120000000E+00
      2 F  12 MG   -5.000000000000E-01  2.500005067828E-01 -1.064120000000E+00
      3 T   8 O     0.000000000000E+00 -2.500005067828E-01 -1.064120000000E+00
      4 F   8 O    -5.000000000000E-01  2.500005067828E-01  1.064120000000E+00
      5 T   8 O    -2.500005067828E-01  4.999985546474E-01 -3.064120000000E+00
      6 F   8 O     2.499994931488E-01 -4.999985546474E-01  3.064120000000E+00

 T = ATOM BELONGING TO THE ASYMMETRIC UNIT

 ****    2 SYMMOPS - TRANSLATORS IN FRACTIONAL UNITS
 **** MATRICES AND TRANSLATORS IN THE CRYSTALLOGRAPHIC REFERENCE FRAME
   V INV                    ROTATION MATRICES                   TRANSLATORS
   1   1  1.00  0.00  0.00  0.00  1.00  0.00  0.00  0.00  1.00  0.00  0.00  0.00
   2   2  1.00  0.00  0.00  0.00 -1.00  0.00  0.00  0.00 -1.00 -0.50  0.00  0.00

 DIRECT LATTICE VECTORS CARTESIAN COMPONENTS (ANGSTROM)
          X                    Y                    Z
   0.000000000000E+00  -0.300978870041E+01   0.000000000000E+00
   0.300978870041E+01   0.000000000000E+00   0.000000000000E+00
   0.000000000000E+00   0.000000000000E+00   0.500000000000E+03


 CARTESIAN COORDINATES - PRIMITIVE CELL
 *******************************************************************************
 *      ATOM          X(ANGSTROM)         Y(ANGSTROM)         Z(ANGSTROM)
 *******************************************************************************
    1    12 MG    2.257340000000E+00  0.000000000000E+00  1.064120000000E+00
    2    12 MG    7.524487004120E-01 -1.504894350206E+00 -1.064120000000E+00
    3     8 O     2.257340000000E+00  0.000000000000E+00 -1.064120000000E+00
    4     8 O     7.524487004120E-01 -1.504894350206E+00  1.064120000000E+00
    5     8 O     1.504890000000E+00 -2.257340000000E+00 -3.064120000000E+00
    6     8 O     1.504898700412E+00 -7.524456495880E-01  3.064120000000E+00

 *******************************************************************************
 STARTING BASIS SET HANDLING 
 *******************************************************************************

 Loading internal basis set: STO-3G              

 Please cite in your publication:
 H - Ne: W.J. Hehre, R.F. Stewart and J.A. Pople, J. Chem. Phys. 2657 (1969).   
                                                                                
                                                                                
                    
 Na - Ar: W.J. Hehre, R. Ditchfield, R.F. Stewart, J.A. Pople, J. Chem. Phys.  2
 769 (1970).                                                                    
                                                                                
                    
 K,Ca: W.J. Pietro, B.A. Levy, W.J. Hehre and R.F. Stewart, Inorg. Chem., 1980, 
 19 (8), pp 2225-2229                                                           
                                                                                
                    
 Ga-Kr: J. Am. Chem. Soc. 19, 2225 (1980).                                      
                                                                                
                                                                                
                    
 Sc-Zn, Y-Cd: W.J. Pietro and W.J. Hehre, J. Comp. Chem. 4, 241 (1983).         
                                                                                
                                                                                
                    

 *******************************************************************************
 LOCAL ATOMIC FUNCTIONS BASIS SET
 *******************************************************************************
   ATOM   X(AU)   Y(AU)   Z(AU)  N. TYPE  EXPONENT  S COEF   P COEF   D/F/G COEF
 *******************************************************************************
   1 MG   4.266   0.000   2.011
                                  1 S  
                                         2.992E+02 1.543E-01 0.000E+00 0.000E+00
                                         5.451E+01 5.353E-01 0.000E+00 0.000E+00
                                         1.475E+01 4.446E-01 0.000E+00 0.000E+00
                                  2 S  
                                         1.512E+01-9.997E-02 0.000E+00 0.000E+00
                                         3.514E+00 3.995E-01 0.000E+00 0.000E+00
                                         1.143E+00 7.001E-01 0.000E+00 0.000E+00
                                  3 S  
                                         1.395E+00-2.196E-01 0.000E+00 0.000E+00
                                         3.893E-01 2.256E-01 0.000E+00 0.000E+00
                                         1.524E-01 9.004E-01 0.000E+00 0.000E+00
                           4-     6 P  
                                         1.512E+01 0.000E+00 1.559E-01 0.000E+00
                                         3.514E+00 0.000E+00 6.077E-01 0.000E+00
                                         1.143E+00 0.000E+00 3.920E-01 0.000E+00
                           7-     9 P  
                                         1.395E+00 0.000E+00 1.059E-02 0.000E+00
                                         3.893E-01 0.000E+00 5.952E-01 0.000E+00
                                         1.524E-01 0.000E+00 4.620E-01 0.000E+00
   2 MG   1.422  -2.844  -2.011
   3 O    4.266   0.000  -2.011
                                 19 S  
                                         1.307E+02 1.543E-01 0.000E+00 0.000E+00
                                         2.381E+01 5.353E-01 0.000E+00 0.000E+00
                                         6.444E+00 4.446E-01 0.000E+00 0.000E+00
                                 20 S  
                                         5.033E+00-9.997E-02 0.000E+00 0.000E+00
                                         1.170E+00 3.995E-01 0.000E+00 0.000E+00
                                         3.804E-01 7.001E-01 0.000E+00 0.000E+00
                          21-    23 P  
                                         5.033E+00 0.000E+00 1.559E-01 0.000E+00
                                         1.170E+00 0.000E+00 6.077E-01 0.000E+00
                                         3.804E-01 0.000E+00 3.920E-01 0.000E+00
   4 O    1.422  -2.844   2.011
   5 O    2.844  -4.266  -5.790
   6 O    2.844  -1.422   5.790

 *******************************************************************************
 FINISHED BASIS SET HANDLING 
 *******************************************************************************

 INFORMATION **** SET_MPP **** PCRYSTAL CALCULATION
 INFORMATION **** READM2 **** NEW DEFAULT: FOCK/KS MATRIX MIXING SET TO 30 %
 INFORMATION **** READM2 **** NEW DEFAULT: FULL DIRECT SCF MODE
 INFORMATION **** READM2 **** NEW DEFAULT: COULOMB BIPOLAR BUFFER SET TO 32 Mb
 INFORMATION **** READM2 **** NEW DEFAULT: EXCHANGE BIPOLAR BUFFER SET TO 32 Mb

 *******************************************************************************
 * ATOMS TRANSFORMED INTO GHOSTS :   2
   5(  8)   6(  8)
 SYMMETRY MAY BE BROKEN

 *******************************************************************************
 NEW DEFAULT: DFT INTEGRATION GRID INCREASED TO XLGRID
 NEW DEFAULT: DIIS ACCELERATOR ACTIVE
 USE KEYWORD NODIIS TO TURN IT OFF
 *******************************************************************************

 INFORMATION **** TOLINTEG **** COULOMB AND EXCHANGE SERIES TOLERANCES MODIFIED
 INFORMATION **** MAXCYCLE **** MAX NUMBER OF SCF CYCLES SET TO         200

 GHOST ATOMS - REMOVAL OF NUCLEAR CHARGE AND ELECTRONS
 TOTAL NUCLEAR CHARGE        4.000000E+01
 TOTAL ELECTRONIC CHARGE     4.000000E+01
 *******************************************************************************
 N. OF ATOMS PER CELL         6  COULOMB OVERLAP TOL         (T1) 10**   -7
 NUMBER OF SHELLS            22  COULOMB PENETRATION TOL     (T2) 10**   -7
 NUMBER OF AO                38  EXCHANGE OVERLAP TOL        (T3) 10**   -7
 N. OF ELECTRONS PER CELL    40  EXCHANGE PSEUDO OVP (F(G))  (T4) 10**   -7
 CORE ELECTRONS PER CELL     24  EXCHANGE PSEUDO OVP (P(G))  (T5) 10**  -14
 N. OF SYMMETRY OPERATORS     2  POLE ORDER IN MONO ZONE                  4
 *******************************************************************************
 TYPE OF CALCULATION :  RESTRICTED CLOSED SHELL
 KOHN-SHAM HAMILTONIAN

 (EXCHANGE)[CORRELATION] FUNCTIONAL:(BECKE 88)[LEE-YANG-PARR]

 NON-LOCAL WEIGHTING FACTOR (EXCHANGE) =           0.9000
 NON-LOCAL WEIGHTING FACTOR [CORRELATION] =        0.8100

 HYBRID EXCHANGE - PERCENTAGE OF FOCK EXCHANGE    20.0000

 CAPPA:IS1 12;IS2 12;IS3  1; K PTS MONK NET  49; SYMMOPS:K SPACE   4;G SPACE   2

 *******************************************************************************
 MAX NUMBER OF SCF CYCLES     200  CONVERGENCE ON DELTAP        10**-16
 WEIGHT OF F(I) IN F(I+1)      30% CONVERGENCE ON ENERGY        10**- 6
 SHRINK. FACT.(MONKH.)   12 12  1  NUMBER OF K POINTS IN THE IBZ     49
 SHRINKING FACTOR(GILAT NET)   24  NUMBER OF K POINTS(GILAT NET)    169
 *******************************************************************************
 *** K POINTS COORDINATES (OBLIQUE COORDINATES IN UNITS OF IS = 12)
   1-R(  0  0  0)   2-C(  1  0  0)   3-C(  2  0  0)   4-C(  3  0  0)
   5-C(  4  0  0)   6-C(  5  0  0)   7-R(  6  0  0)   8-C(  0  1  0)
   9-C(  1  1  0)  10-C(  2  1  0)  11-C(  3  1  0)  12-C(  4  1  0)
  13-C(  5  1  0)  14-C(  6  1  0)  15-C(  0  2  0)  16-C(  1  2  0)
  17-C(  2  2  0)  18-C(  3  2  0)  19-C(  4  2  0)  20-C(  5  2  0)
  21-C(  6  2  0)  22-C(  0  3  0)  23-C(  1  3  0)  24-C(  2  3  0)
  25-C(  3  3  0)  26-C(  4  3  0)  27-C(  5  3  0)  28-C(  6  3  0)
  29-C(  0  4  0)  30-C(  1  4  0)  31-C(  2  4  0)  32-C(  3  4  0)
  33-C(  4  4  0)  34-C(  5  4  0)  35-C(  6  4  0)  36-C(  0  5  0)
  37-C(  1  5  0)  38-C(  2  5  0)  39-C(  3  5  0)  40-C(  4  5  0)
  41-C(  5  5  0)  42-C(  6  5  0)  43-R(  0  6  0)  44-C(  1  6  0)
  45-C(  2  6  0)  46-C(  3  6  0)  47-C(  4  6  0)  48-C(  5  6  0)
  49-R(  6  6  0)

 DIRECT LATTICE VECTORS COMPON. (A.U.)     RECIP. LATTICE VECTORS COMPON. (A.U.) 
        X            Y            Z              X            Y            Z
    0.0000000   -5.6876764    0.0000000      0.0000000   -1.1047016    0.0000000
    5.6876764    0.0000000    0.0000000      1.1047016    0.0000000    0.0000000
    0.0000000    0.0000000  944.8630670      0.0000000    0.0000000    0.0066498

 DISK SPACE FOR EIGENVECTORS (FTN 10)      135736 REALS

 SYMMETRY ADAPTION OF THE BLOCH FUNCTIONS ENABLED
 TTTTTTTTTTTTTTTTTTTTTTTTTTTTTT gordsh1     TELAPSE        0.03 TCPU        0.01

 MATRIX SIZE: P(G)   21558, F(G)    4758, P(G) IRR    6181, F(G) IRR    2599
 MAX G-VECTOR INDEX FOR 1- AND 2-ELECTRON INTEGRALS  61

 TTTTTTTTTTTTTTTTTTTTTTTTTTTTTT INPUT       TELAPSE        0.03 TCPU        0.01

 NEIGHBORS OF THE NON-EQUIVALENT ATOMS

 N = NUMBER OF NEIGHBORS AT DISTANCE R
    ATOM  N     R/ANG      R/AU   NEIGHBORS (ATOM LABELS AND CELL INDICES)
   1 MG   2     2.1282     4.0218    4 O    0 0 0    4 O   -1 0 0
   1 MG   1     2.1282     4.0218    3 O    0 0 0
   1 MG   2     2.1282     4.0218    4 O    0 1 0    4 O   -1 1 0
   1 MG   1     2.2655     4.2811    6 XX   0 0 0
   1 MG   2     3.0098     5.6877    2 MG   0 0 0    2 MG  -1 0 0
   1 MG   4     3.0098     5.6877    1 MG  -1 0 0    1 MG   1 0 0    1 MG   0-1 0
                                     1 MG   0 1 0

   3 O    2     2.1282     4.0218    2 MG   0 0 0    2 MG  -1 0 0
   3 O    1     2.1282     4.0218    1 MG   0 0 0
   3 O    2     2.1282     4.0218    2 MG   0 1 0    2 MG  -1 1 0
   3 O    1     2.2655     4.2811    5 XX  -1 0 0
   3 O    2     3.0098     5.6877    4 O    0 0 0    4 O   -1 0 0
   3 O    4     3.0098     5.6877    3 O   -1 0 0    3 O    1 0 0    3 O    0-1 0
                                     3 O    0 1 0

   5 XX   1     2.2655     4.2811    2 MG   0 0 0
   5 XX   1     2.2655     4.2811    3 O    1 0 0
   5 XX   4     3.0098     5.6877    5 XX  -1 0 0    5 XX   1 0 0    5 XX   0-1 0
                                     5 XX   0 1 0
   5 XX   1     3.1083     5.8739    3 O    1-1 0
   5 XX   1     3.1083     5.8739    3 O    0 0 0
   5 XX   1     3.1083     5.8739    2 MG   1 0 0


 SYMMETRY ALLOWED INTERNAL DEGREE(S) OF FREEDOM:   8
 TTTTTTTTTTTTTTTTTTTTTTTTTTTTTT SYMM        TELAPSE        0.03 TCPU        0.02
 TTTTTTTTTTTTTTTTTTTTTTTTTTTTTT INT_SCREEN  TELAPSE        0.03 TCPU        0.02
 INFORMATION **** EXCBUF **** EXCH. BIPO BUFFER: WORDS USED =      100899

 DFT PARAMETERS

     ATOM       ELECTRONS   NET CHARGE   R(ANGSTROM)
   1  12  MG     12.0000      0.0000     1.60000000
   3   8  O       8.0000      0.0000     0.74000000
   5   0  XX      0.0000      0.0000     0.50000000

 SIZE OF GRID=     164086
 TTTTTTTTTTTTTTTTTTTTTTTTTTTTTT MAKE_GRID2  TELAPSE        1.83 TCPU        1.81
 BECKE WEIGHT FUNCTION
 RADSAFE =     2.00
 TOLERANCES - DENSITY:10**- 6; POTENTIAL:10**- 9; GRID WGT:10**-14

 RADIAL INTEGRATION  - INTERVALS (POINTS,UPPER LIMIT):            1( 99,  4.0*R)

 ANGULAR INTEGRATION - INTERVALS (ACCURACY LEVEL [N. POINTS] UPPER LIMIT):
  1(  6[ 146]   0.2)  2( 11[ 302]   0.5)  3( 14[ 590]   0.9)  4( 18[1454]   3.5)
  5( 14[ 590]9999.0)

 GHOST ATOMS - REMOVAL OF NUCLEAR CHARGE AND ELECTRONS
 TOTAL NUCLEAR CHARGE        4.000000E+01
 TOTAL ELECTRONIC CHARGE     4.000000E+01
 TTTTTTTTTTTTTTTTTTTTTTTTTTTTTT INT_CALC    TELAPSE        1.83 TCPU        1.81
 EEEEEEEEEE INT_CALC TERMINATION  DATE 21 01 2022 TIME 12:20:05.0

 *******************************************************************************
 Adsorption tests                                                                
 CRYSTAL - SCF - TYPE OF CALCULATION :  RESTRICTED CLOSED SHELL
 *******************************************************************************

 CAPPA:IS1 12;IS2 12;IS3  1; K PTS MONK NET  49; SYMMOPS:K SPACE   4;G SPACE   2

 TTTTTTTTTTTTTTTTTTTTTTTTTTTTTT SDIK        TELAPSE        1.84 TCPU        1.82

 AAAAAAAAAAAAAAAAAAAAAAAAAAAAAAAAAAAAAAAAAAAAAAAAAAAAAAAAAAAAAAAAAAAAAAAAAAAAAAA
         ATOMIC WAVEFUNCTION(S)


 NUCLEAR CHARGE 12.0  SYMMETRY SPECIES            S    P
 N. ELECTRONS   12.0  NUMBER OF PRIMITIVE GTOS    9    6
                      NUMBER OF CONTRACTED GTOS   3    2
                      NUMBER OF CLOSED SHELLS     3    1
                      OPEN SHELL OCCUPATION       0    0

  ZNUC SCFIT  TOTAL HF ENERGY   KINETIC ENERGY   VIRIAL THEOREM ACCURACY
  12.0   4   -1.970073539E+02  1.945732157E+02 -2.012510140E+00  2.9E-06

 NUCLEAR CHARGE  8.0  SYMMETRY SPECIES            S    P
 N. ELECTRONS    8.0  NUMBER OF PRIMITIVE GTOS    6    3
                      NUMBER OF CONTRACTED GTOS   2    1
                      NUMBER OF CLOSED SHELLS     2    0
                      OPEN SHELL OCCUPATION       0    4

  ZNUC SCFIT  TOTAL HF ENERGY   KINETIC ENERGY   VIRIAL THEOREM ACCURACY
   8.0   1   -7.380415023E+01  7.344495887E+01 -2.004890620E+00  0.0E+00

 AAAAAAAAAAAAAAAAAAAAAAAAAAAAAAAAAAAAAAAAAAAAAAAAAAAAAAAAAAAAAAAAAAAAAAAAAAAAAAA

 CHARGE NORMALIZATION FACTOR   1.00000000
 TOTAL ATOMIC CHARGES:
  12.0000000  12.0000000   8.0000000   8.0000000   0.0000000   0.0000000
 TTTTTTTTTTTTTTTTTTTTTTTTTTTTTT MOQGAD      TELAPSE        1.85 TCPU        1.83
 TTTTTTTTTTTTTTTTTTTTTTTTTTTTTT SHELLXN     TELAPSE        9.35 TCPU        9.33
 TTTTTTTTTTTTTTTTTTTTTTTTTTTTTT MONMO3      TELAPSE        9.41 TCPU        9.40
 NUMERICALLY INTEGRATED DENSITY     39.9999983013
 TTTTTTTTTTTTTTTTTTTTTTTTTTTTTT NUMDFT      TELAPSE       10.18 TCPU       10.16
 CYC   0 ETOT(AU) -5.429189123796E+02 DETOT -5.43E+02 tst  0.00E+00 PX  1.00E+00
 TTTTTTTTTTTTTTTTTTTTTTTTTTTTTT DIIS        TELAPSE       10.18 TCPU       10.16
 TTTTTTTTTTTTTTTTTTTTTTTTTTTTTT FDIK        TELAPSE       10.20 TCPU       10.18
 INSULATING STATE
 TOP OF VALENCE BANDS -    BAND     20; K   18; EIG -1.4936357E-01 AU
 TOP OF VALENCE BANDS -    BAND     20; K    1; EIG -1.5793859E-01 AU
 BOTTOM OF VIRTUAL BANDS - BAND     21; K    1; EIG  7.6861503E-02 AU
 INDIRECT ENERGY BAND GAP:   6.1559 eV
 TTTTTTTTTTTTTTTTTTTTTTTTTTTTTT PDIG        TELAPSE       10.20 TCPU       10.19
 CHARGE NORMALIZATION FACTOR   1.00000000
 TOTAL ATOMIC CHARGES:
  10.8370709  10.8370709   9.1570095   9.1570095   0.0059196   0.0059196
 TTTTTTTTTTTTTTTTTTTTTTTTTTTTTT MOQGAD      TELAPSE       10.21 TCPU       10.19
 TTTTTTTTTTTTTTTTTTTTTTTTTTTTTT SHELLXN     TELAPSE       17.84 TCPU       17.82
 TTTTTTTTTTTTTTTTTTTTTTTTTTTTTT MONMO3      TELAPSE       17.90 TCPU       17.88
 NUMERICALLY INTEGRATED DENSITY     39.9999993729
 TTTTTTTTTTTTTTTTTTTTTTTTTTTTTT NUMDFT      TELAPSE       19.74 TCPU       19.72
 CYC   1 ETOT(AU) -5.435395495839E+02 DETOT -6.21E-01 tst  0.00E+00 PX  1.00E+00
 TTTTTTTTTTTTTTTTTTTTTTTTTTTTTT DIIS        TELAPSE       19.74 TCPU       19.73
 DIIS TEST: 0.20522E+00 AT SCF   CYCLE   1 - MIX   30 %
 TTTTTTTTTTTTTTTTTTTTTTTTTTTTTT FDIK        TELAPSE       19.76 TCPU       19.74
 INSULATING STATE
 TOP OF VALENCE BANDS -    BAND     20; K   24; EIG  1.2770056E-01 AU
 TOP OF VALENCE BANDS -    BAND     20; K    1; EIG  9.7671304E-02 AU
 BOTTOM OF VIRTUAL BANDS - BAND     21; K    1; EIG  1.8127510E-01 AU
 INDIRECT ENERGY BAND GAP:   1.4578 eV
 TTTTTTTTTTTTTTTTTTTTTTTTTTTTTT PDIG        TELAPSE       19.76 TCPU       19.74
 CHARGE NORMALIZATION FACTOR   1.00000000
 TOTAL ATOMIC CHARGES:
  11.7461468  11.7461468   8.2324753   8.2324753   0.0213779   0.0213779
 TTTTTTTTTTTTTTTTTTTTTTTTTTTTTT MOQGAD      TELAPSE       19.77 TCPU       19.75
 TTTTTTTTTTTTTTTTTTTTTTTTTTTTTT SHELLXN     TELAPSE       27.39 TCPU       27.37
 TTTTTTTTTTTTTTTTTTTTTTTTTTTTTT MONMO3      TELAPSE       27.45 TCPU       27.43
 NUMERICALLY INTEGRATED DENSITY     39.9999988040
 TTTTTTTTTTTTTTTTTTTTTTTTTTTTTT NUMDFT      TELAPSE       29.29 TCPU       29.27
 CYC   2 ETOT(AU) -5.436794225901E+02 DETOT -1.40E-01 tst  3.49E-02 PX  4.25E-01
 TTTTTTTTTTTTTTTTTTTTTTTTTTTTTT DIIS        TELAPSE       29.29 TCPU       29.27
 DIIS TEST: 0.96634E-01 AT SCF   CYCLE   2 - DIIS ACTIVE - HISTORY:     2 CYCLES
 TTTTTTTTTTTTTTTTTTTTTTTTTTTTTT FDIK        TELAPSE       29.31 TCPU       29.28
 INSULATING STATE
 TOP OF VALENCE BANDS -    BAND     20; K   24; EIG  2.3361284E-02 AU
 TOP OF VALENCE BANDS -    BAND     20; K    1; EIG  2.5380738E-03 AU
 BOTTOM OF VIRTUAL BANDS - BAND     21; K    1; EIG  1.5886378E-01 AU
 INDIRECT ENERGY BAND GAP:   3.6872 eV
 TTTTTTTTTTTTTTTTTTTTTTTTTTTTTT PDIG        TELAPSE       29.31 TCPU       29.29
 CHARGE NORMALIZATION FACTOR   1.00000000
 TOTAL ATOMIC CHARGES:
  11.4073762  11.4073762   8.5772226   8.5772226   0.0154012   0.0154012
 TTTTTTTTTTTTTTTTTTTTTTTTTTTTTT MOQGAD      TELAPSE       29.32 TCPU       29.30
 TTTTTTTTTTTTTTTTTTTTTTTTTTTTTT SHELLXN     TELAPSE       36.94 TCPU       36.92
 TTTTTTTTTTTTTTTTTTTTTTTTTTTTTT MONMO3      TELAPSE       37.00 TCPU       36.98
 NUMERICALLY INTEGRATED DENSITY     39.9999991256
 TTTTTTTTTTTTTTTTTTTTTTTTTTTTTT NUMDFT      TELAPSE       38.84 TCPU       38.82
 CYC   3 ETOT(AU) -5.437608393452E+02 DETOT -8.14E-02 tst  6.00E-03 PX  1.91E-01
 TTTTTTTTTTTTTTTTTTTTTTTTTTTTTT DIIS        TELAPSE       38.84 TCPU       38.82
 DIIS TEST: 0.37940E-03 AT SCF   CYCLE   3 - DIIS ACTIVE - HISTORY:     3 CYCLES
 TTTTTTTTTTTTTTTTTTTTTTTTTTTTTT FDIK        TELAPSE       38.85 TCPU       38.83
 INSULATING STATE
 TOP OF VALENCE BANDS -    BAND     20; K    6; EIG  2.3073782E-02 AU
 TOP OF VALENCE BANDS -    BAND     20; K    1; EIG  2.3161551E-03 AU
 BOTTOM OF VIRTUAL BANDS - BAND     21; K    1; EIG  1.6397852E-01 AU
 INDIRECT ENERGY BAND GAP:   3.8342 eV
 TTTTTTTTTTTTTTTTTTTTTTTTTTTTTT PDIG        TELAPSE       38.86 TCPU       38.84
 CHARGE NORMALIZATION FACTOR   1.00000000
 TOTAL ATOMIC CHARGES:
  11.3899001  11.3899001   8.5945777   8.5945777   0.0155222   0.0155222
 TTTTTTTTTTTTTTTTTTTTTTTTTTTTTT MOQGAD      TELAPSE       38.86 TCPU       38.84
 TTTTTTTTTTTTTTTTTTTTTTTTTTTTTT SHELLXN     TELAPSE       46.51 TCPU       46.49
 TTTTTTTTTTTTTTTTTTTTTTTTTTTTTT MONMO3      TELAPSE       46.57 TCPU       46.55
 NUMERICALLY INTEGRATED DENSITY     39.9999991237
 TTTTTTTTTTTTTTTTTTTTTTTTTTTTTT NUMDFT      TELAPSE       48.42 TCPU       48.40
 CYC   4 ETOT(AU) -5.437611515919E+02 DETOT -3.12E-04 tst  1.38E-05 PX  1.04E-02
 TTTTTTTTTTTTTTTTTTTTTTTTTTTTTT DIIS        TELAPSE       48.43 TCPU       48.41
 DIIS TEST: 0.61535E-05 AT SCF   CYCLE   4 - DIIS ACTIVE - HISTORY:     4 CYCLES
 TTTTTTTTTTTTTTTTTTTTTTTTTTTTTT FDIK        TELAPSE       48.44 TCPU       48.42
 INSULATING STATE
 TOP OF VALENCE BANDS -    BAND     20; K    6; EIG  2.0651084E-02 AU
 TOP OF VALENCE BANDS -    BAND     20; K    1; EIG -9.4306155E-05 AU
 BOTTOM OF VIRTUAL BANDS - BAND     21; K    1; EIG  1.6267926E-01 AU
 INDIRECT ENERGY BAND GAP:   3.8648 eV
 TTTTTTTTTTTTTTTTTTTTTTTTTTTTTT PDIG        TELAPSE       48.44 TCPU       48.42
 CHARGE NORMALIZATION FACTOR   1.00000000
 TOTAL ATOMIC CHARGES:
  11.3867373  11.3867373   8.5978084   8.5978084   0.0154543   0.0154543
 TTTTTTTTTTTTTTTTTTTTTTTTTTTTTT MOQGAD      TELAPSE       48.45 TCPU       48.43
 TTTTTTTTTTTTTTTTTTTTTTTTTTTTTT SHELLXN     TELAPSE       56.08 TCPU       56.06
 TTTTTTTTTTTTTTTTTTTTTTTTTTTTTT MONMO3      TELAPSE       56.14 TCPU       56.12
 NUMERICALLY INTEGRATED DENSITY     39.9999991280
 TTTTTTTTTTTTTTTTTTTTTTTTTTTTTT NUMDFT      TELAPSE       57.98 TCPU       57.95
 CYC   5 ETOT(AU) -5.437611575139E+02 DETOT -5.92E-06 tst  9.46E-07 PX  1.91E-03
 TTTTTTTTTTTTTTTTTTTTTTTTTTTTTT DIIS        TELAPSE       57.98 TCPU       57.96
 DIIS TEST: 0.15719E-06 AT SCF   CYCLE   5 - DIIS ACTIVE - HISTORY:     5 CYCLES
 TTTTTTTTTTTTTTTTTTTTTTTTTTTTTT FDIK        TELAPSE       57.99 TCPU       57.97
 INSULATING STATE
 TOP OF VALENCE BANDS -    BAND     20; K    6; EIG  2.0797161E-02 AU
 TOP OF VALENCE BANDS -    BAND     20; K    1; EIG  4.1389953E-05 AU
 BOTTOM OF VIRTUAL BANDS - BAND     21; K    1; EIG  1.6273816E-01 AU
 INDIRECT ENERGY BAND GAP:   3.8624 eV
 TTTTTTTTTTTTTTTTTTTTTTTTTTTTTT PDIG        TELAPSE       58.00 TCPU       57.98
 CHARGE NORMALIZATION FACTOR   1.00000000
 TOTAL ATOMIC CHARGES:
  11.3870877  11.3870877   8.5974489   8.5974489   0.0154635   0.0154635
 TTTTTTTTTTTTTTTTTTTTTTTTTTTTTT MOQGAD      TELAPSE       58.00 TCPU       57.98
 TTTTTTTTTTTTTTTTTTTTTTTTTTTTTT SHELLXN     TELAPSE       65.63 TCPU       65.61
 TTTTTTTTTTTTTTTTTTTTTTTTTTTTTT MONMO3      TELAPSE       65.69 TCPU       65.67
 NUMERICALLY INTEGRATED DENSITY     39.9999991278
 TTTTTTTTTTTTTTTTTTTTTTTTTTTTTT NUMDFT      TELAPSE       67.53 TCPU       67.51
 CYC   6 ETOT(AU) -5.437611575188E+02 DETOT -4.96E-09 tst  3.98E-09 PX  1.58E-04
 TTTTTTTTTTTTTTTTTTTTTTTTTTTTTT DIIS        TELAPSE       67.53 TCPU       67.51
 DIIS TEST: 0.45567E-09 AT SCF   CYCLE   6 - DIIS ACTIVE - HISTORY:     6 CYCLES
 TTTTTTTTTTTTTTTTTTTTTTTTTTTTTT FDIK        TELAPSE       67.54 TCPU       67.52
 INSULATING STATE
 TOP OF VALENCE BANDS -    BAND     20; K    6; EIG  2.0825167E-02 AU
 TOP OF VALENCE BANDS -    BAND     20; K    1; EIG  6.8088463E-05 AU
 BOTTOM OF VIRTUAL BANDS - BAND     21; K    1; EIG  1.6276005E-01 AU
 INDIRECT ENERGY BAND GAP:   3.8622 eV
 TTTTTTTTTTTTTTTTTTTTTTTTTTTTTT PDIG        TELAPSE       67.55 TCPU       67.53
 CHARGE NORMALIZATION FACTOR   1.00000000
 TOTAL ATOMIC CHARGES:
  11.3871017  11.3871017   8.5974333   8.5974333   0.0154650   0.0154650
 TTTTTTTTTTTTTTTTTTTTTTTTTTTTTT MOQGAD      TELAPSE       67.56 TCPU       67.53
 TTTTTTTTTTTTTTTTTTTTTTTTTTTTTT SHELLXN     TELAPSE       75.18 TCPU       75.16

 ::: DIPOLE MOMENT ALONG NON PERIODIC DIRECTIONS:
 ::: A.U.     (Z)  0.00000E+00
 ::: DEBYE         0.00000E+00

 +++ ENERGIES IN A.U. +++
 ::: EXT EL-POLE                                  -1.0501272867024E+03
 ::: EXT EL-SPHEROPOLE                             0.0000000000000E+00
 ::: BIELET ZONE E-E                               8.0307339456075E+02
 ::: TOTAL E-E                                    -2.4705389214168E+02
 ::: TOTAL E-N + N-E                              -2.7961747106486E+02
 ::: TOTAL N-N                                    -5.0936796437318E+02
 ::: KINETIC ENERGY                                5.3282412590625E+02
 ::: PSEUDO TOTAL   ENERGY                        -5.0321520167347E+02
 ::: VIRIAL COEFFICIENT                            1.0285789578104E+00
 TTTTTTTTTTTTTTTTTTTTTTTTTTTTTT MONMO3      TELAPSE       75.24 TCPU       75.22
 NUMERICALLY INTEGRATED DENSITY     39.9999991277
 TTTTTTTTTTTTTTTTTTTTTTTTTTTTTT NUMDFT      TELAPSE       77.08 TCPU       77.06
 CYC   7 ETOT(AU) -5.437611575245E+02 DETOT -5.69E-09 tst  5.49E-11 PX  1.58E-04

 == SCF ENDED - CONVERGENCE ON ENERGY      E(AU) -5.4376115752450E+02 CYCLES   7


 ENERGY EXPRESSION=HARTREE+FOCK EXCH*0.20000+(BECKE      EXCH)*0.80000+LYP        CORR


 TOTAL ENERGY(DFT)(AU)(  7) -5.4376115752450E+02 DE-5.7E-09 tester 5.5E-11
 TTTTTTTTTTTTTTTTTTTTTTTTTTTTTT EDFT        TELAPSE       77.08 TCPU       77.06
 EIGENVECTORS IN FORTRAN UNIT 10
 TTTTTTTTTTTTTTTTTTTTTTTTTTTTTT END         TELAPSE       77.10 TCPU       77.07
 EEEEEEEEEE TERMINATION  DATE 21 01 2022 TIME 12:21:20.3
Fri 21 Jan 2022 12:21:20 GMT
Contents of temporary directory:
total 6048
-rw-r--r--  1 brunocamino  admin  145600 21 Jan 12:21 diis_Fg
-rw-r--r--  1 brunocamino  admin   34752 21 Jan 12:21 diis_Fia1
-rw-r--r--  1 brunocamino  admin   28960 21 Jan 12:21 diis_Fia2
-rw-r--r--  1 brunocamino  admin       0 21 Jan 12:20 diis_Sk
-rw-r--r--  1 brunocamino  admin  959304 21 Jan 12:21 fort.10
-rw-r--r--  1 brunocamino  admin   20800 21 Jan 12:21 fort.11
-rw-r--r--  1 brunocamino  admin    1103 21 Jan 12:20 fort.34
-rw-r--r--  1 brunocamino  admin   46832 21 Jan 12:20 fort.61
-rw-r--r--  1 brunocamino  admin   28192 21 Jan 12:20 fort.62
-rw-r--r--  1 brunocamino  admin  959304 21 Jan 12:21 fort.8
-rw-r--r--  1 brunocamino  admin  188220 21 Jan 12:21 fort.9
-rw-r--r--  1 brunocamino  admin   55072 21 Jan 12:21 fort.95
-rw-r--r--  1 brunocamino  admin  484260 21 Jan 12:21 fort.98
wave function binary file /Users/brunocamino/Desktop/Imperial/cmsg_icl/ml-surface-adsorption/data/Mg2O2_O1_100_4_BSSE_sub.f9
file fort.98 saved as /Users/brunocamino/Desktop/Imperial/cmsg_icl/ml-surface-adsorption/data/Mg2O2_O1_100_4_BSSE_sub.f98
geometry input file fort.34 saved as /Users/brunocamino/Desktop/Imperial/cmsg_icl/ml-surface-adsorption/data/Mg2O2_O1_100_4_BSSE_sub.gui
temporary directory /Users/brunocamino/crystal/tmp removed
